vac-DMMS                                                                
Freq      RB3LYP                                                      6-311++G(d,p)       
Number of atoms                            I               19
Info1-9                                    I   N=           9
          49          47        1002           0           0         100
           6          18        -502
Full Title                                 C   N=           1
vac-DMMS    
Route                                      C   N=           7
# opt=calcfc freq b3lyp/6-311++g(d,p) em=gd3 pop=(nbo,savenb
o) geom=connectivity    
Charge                                     I                0
Multiplicity                               I                1
Number of electrons                        I               66
Number of alpha electrons                  I               33
Number of beta electrons                   I               33
Number of basis functions                  I              246
Number of independent functions            I              246
Number of point charges in /Mol/           I                0
Number of translation vectors              I                0
Atomic numbers                             I   N=          19
          14           8           8           6           6           6
           6           1           1           1           1           1
           1           1           1           1           1           1
           1
Nuclear charges                            R   N=          19
  1.40000000E+01  8.00000000E+00  8.00000000E+00  6.00000000E+00  6.00000000E+00
  6.00000000E+00  6.00000000E+00  1.00000000E+00  1.00000000E+00  1.00000000E+00
  1.00000000E+00  1.00000000E+00  1.00000000E+00  1.00000000E+00  1.00000000E+00
  1.00000000E+00  1.00000000E+00  1.00000000E+00  1.00000000E+00
Current cartesian coordinates              R   N=          57
  1.16896159E-04  9.08403329E-01  8.63792634E-05  2.01559110E+00 -9.08832288E-01
 -1.60209228E+00 -2.01737913E+00 -9.07145799E-01  1.60164153E+00  1.64828344E+00
  2.81446573E+00  2.46675278E+00 -1.64582649E+00  2.81718528E+00 -2.46595311E+00
  3.68829286E+00 -2.68703670E+00 -4.79689274E-01 -3.68951952E+00 -2.68581353E+00
  4.79117297E-01  3.07808178E-01  4.02046439E+00  3.47560979E+00  2.55633224E+00
  1.58831328E+00  3.86007204E+00  3.09802144E+00  4.02342058E+00  1.62479055E+00
 -3.04112685E-01  4.02214884E+00 -3.47442754E+00 -2.55523860E+00  1.59257180E+00
 -3.85973349E+00 -3.09420456E+00  4.02737227E+00 -1.62344618E+00  4.63065686E+00
 -3.72315866E+00 -1.99492571E+00  2.67328372E+00 -4.04033964E+00  7.17785722E-01
  5.13505476E+00 -1.74661414E+00  6.69375576E-01 -5.13567583E+00 -1.74591021E+00
 -6.71107598E-01 -4.63271258E+00 -3.72127293E+00  1.99430262E+00 -2.67392686E+00
 -4.03962221E+00 -7.17265271E-01
Number of symbols in /Mol/                 I                0
Force Field                                I                0
Atom Types                                 C   N=          19
                                                            
                                                            
                                                            
                                                
Int Atom Types                             I   N=          19
           0           0           0           0           0           0
           0           0           0           0           0           0
           0           0           0           0           0           0
           0
MM charges                                 R   N=          19
  0.00000000E+00  0.00000000E+00  0.00000000E+00  0.00000000E+00  0.00000000E+00
  0.00000000E+00  0.00000000E+00  0.00000000E+00  0.00000000E+00  0.00000000E+00
  0.00000000E+00  0.00000000E+00  0.00000000E+00  0.00000000E+00  0.00000000E+00
  0.00000000E+00  0.00000000E+00  0.00000000E+00  0.00000000E+00
Integer atomic weights                     I   N=          19
          28          16          16          12          12          12
          12           1           1           1           1           1
           1           1           1           1           1           1
           1
Real atomic weights                        R   N=          19
  2.79769284E+01  1.59949146E+01  1.59949146E+01  1.20000000E+01  1.20000000E+01
  1.20000000E+01  1.20000000E+01  1.00782504E+00  1.00782504E+00  1.00782504E+00
  1.00782504E+00  1.00782504E+00  1.00782504E+00  1.00782504E+00  1.00782504E+00
  1.00782504E+00  1.00782504E+00  1.00782504E+00  1.00782504E+00
Atom fragment info                         I   N=          19
           0           0           0           0           0           0
           0           0           0           0           0           0
           0           0           0           0           0           0
           0
Atom residue num                           I   N=          19
           0           0           0           0           0           0
           0           0           0           0           0           0
           0           0           0           0           0           0
           0
Nuclear spins                              I   N=          19
           0           0           0           0           0           0
           0           1           1           1           1           1
           1           1           1           1           1           1
           1
Nuclear ZEff                               R   N=          19
 -1.22500000E+01 -5.60000000E+00 -5.60000000E+00 -3.60000000E+00 -3.60000000E+00
 -3.60000000E+00 -3.60000000E+00 -1.00000000E+00 -1.00000000E+00 -1.00000000E+00
 -1.00000000E+00 -1.00000000E+00 -1.00000000E+00 -1.00000000E+00 -1.00000000E+00
 -1.00000000E+00 -1.00000000E+00 -1.00000000E+00 -1.00000000E+00
Nuclear ZNuc                               R   N=          19
  1.40000000E+01  8.00000000E+00  8.00000000E+00  6.00000000E+00  6.00000000E+00
  6.00000000E+00  6.00000000E+00  1.00000000E+00  1.00000000E+00  1.00000000E+00
  1.00000000E+00  1.00000000E+00  1.00000000E+00  1.00000000E+00  1.00000000E+00
  1.00000000E+00  1.00000000E+00  1.00000000E+00  1.00000000E+00
Nuclear QMom                               R   N=          19
  0.00000000E+00  0.00000000E+00  0.00000000E+00  0.00000000E+00  0.00000000E+00
  0.00000000E+00  0.00000000E+00  0.00000000E+00  0.00000000E+00  0.00000000E+00
  0.00000000E+00  0.00000000E+00  0.00000000E+00  0.00000000E+00  0.00000000E+00
  0.00000000E+00  0.00000000E+00  0.00000000E+00  0.00000000E+00
Nuclear GFac                               R   N=          19
  0.00000000E+00  0.00000000E+00  0.00000000E+00  0.00000000E+00  0.00000000E+00
  0.00000000E+00  0.00000000E+00  2.79284600E+00  2.79284600E+00  2.79284600E+00
  2.79284600E+00  2.79284600E+00  2.79284600E+00  2.79284600E+00  2.79284600E+00
  2.79284600E+00  2.79284600E+00  2.79284600E+00  2.79284600E+00
MicOpt                                     I   N=          19
          -1          -1          -1          -1          -1          -1
          -1          -1          -1          -1          -1          -1
          -1          -1          -1          -1          -1          -1
          -1
Number of residues                         I                0
Number of secondary structures             I                0
Redundant internal dimensions              I   N=           4
          80          18          32          30
Redundant internal coordinate indices      I   N=         320
           1           2           0           0           1           3
           0           0           1           4           0           0
           1           5           0           0           2           6
           0           0           3           7           0           0
           4           8           0           0           4           9
           0           0           4          10           0           0
           5          11           0           0           5          12
           0           0           5          13           0           0
           6          14           0           0           6          15
           0           0           6          16           0           0
           7          17           0           0           7          18
           0           0           7          19           0           0
           2           1           3           0           2           1
           4           0           2           1           5           0
           3           1           4           0           3           1
           5           0           4           1           5           0
           1           2           6           0           1           3
           7           0           1           4           8           0
           1           4           9           0           1           4
          10           0           8           4           9           0
           8           4          10           0           9           4
          10           0           1           5          11           0
           1           5          12           0           1           5
          13           0          11           5          12           0
          11           5          13           0          12           5
          13           0           2           6          14           0
           2           6          15           0           2           6
          16           0          14           6          15           0
          14           6          16           0          15           6
          16           0           3           7          17           0
           3           7          18           0           3           7
          19           0          17           7          18           0
          17           7          19           0          18           7
          19           0           3           1           2           6
           4           1           2           6           5           1
           2           6           2           1           3           7
           4           1           3           7           5           1
           3           7           2           1           4           8
           2           1           4           9           2           1
           4          10           3           1           4           8
           3           1           4           9           3           1
           4          10           5           1           4           8
           5           1           4           9           5           1
           4          10           2           1           5          11
           2           1           5          12           2           1
           5          13           3           1           5          11
           3           1           5          12           3           1
           5          13           4           1           5          11
           4           1           5          12           4           1
           5          13           1           2           6          14
           1           2           6          15           1           2
           6          16           1           3           7          17
           1           3           7          18           1           3
           7          19
Redundant internal coordinates             R   N=          80
  3.15142158E+00  3.15142631E+00  3.52618348E+00  3.52617767E+00  2.68695564E+00
  2.68696354E+00  2.06617985E+00  2.06623837E+00  2.06693311E+00  2.06619306E+00
  2.06623627E+00  2.06692271E+00  2.06338074E+00  2.07258746E+00  2.07312919E+00
  2.07311448E+00  2.06338942E+00  2.07257272E+00  1.91302836E+00  1.94809591E+00
  1.82876936E+00  1.82878621E+00  1.94812828E+00  1.99850392E+00  2.17411594E+00
  2.17419854E+00  1.93245717E+00  1.93515532E+00  1.93804884E+00  1.87782970E+00
  1.88866431E+00  1.88971334E+00  1.93255363E+00  1.93516982E+00  1.93795776E+00
  1.87780300E+00  1.88865520E+00  1.88972917E+00  1.88586012E+00  1.94829423E+00
  1.94524939E+00  1.89659666E+00  1.89240096E+00  1.89412418E+00  1.94527118E+00
  1.88586396E+00  1.94830351E+00  1.89237974E+00  1.89409685E+00  1.89660960E+00
 -1.05080971E+00  9.67264259E-01  3.13970419E+00 -1.04912029E+00  3.14142225E+00
  9.68951990E-01  3.12316453E+00 -1.07699922E+00  1.02464514E+00 -1.09095703E+00
  9.92064532E-01  3.09370889E+00  1.04916157E+00  3.13218313E+00 -1.04935782E+00
 -1.09098799E+00  9.92072289E-01  3.09368550E+00  3.12312688E+00 -1.07699815E+00
  1.02461507E+00  1.04907804E+00  3.13213831E+00 -1.04943378E+00  3.04359553E+00
  9.59139951E-01 -1.16209827E+00 -1.16269001E+00  3.04301452E+00  9.58535007E-01
ZRed-IntVec                                I   N=          80
           0           0           0           0           0           0
           0           0           0           0           0           0
           0           0           0           0           0           0
           0           0           0           0           0           0
           0           0           0           0           0           0
           0           0           0           0           0           0
           0           0           0           0           0           0
           0           0           0           0           0           0
           0           0           0           0           0           0
           0           0           0           0           0           0
           0           0           0           0           0           0
           0           0           0           0           0           0
           0           0           0           0           0           0
           0           0
ZRed-FPVec                                 R   N=          80
  0.00000000E+00  0.00000000E+00  0.00000000E+00  0.00000000E+00  0.00000000E+00
  0.00000000E+00  0.00000000E+00  0.00000000E+00  0.00000000E+00  0.00000000E+00
  0.00000000E+00  0.00000000E+00  0.00000000E+00  0.00000000E+00  0.00000000E+00
  0.00000000E+00  0.00000000E+00  0.00000000E+00  0.00000000E+00  0.00000000E+00
  0.00000000E+00  0.00000000E+00  0.00000000E+00  0.00000000E+00  0.00000000E+00
  0.00000000E+00  0.00000000E+00  0.00000000E+00  0.00000000E+00  0.00000000E+00
  0.00000000E+00  0.00000000E+00  0.00000000E+00  0.00000000E+00  0.00000000E+00
  0.00000000E+00  0.00000000E+00  0.00000000E+00  0.00000000E+00  0.00000000E+00
  0.00000000E+00  0.00000000E+00  0.00000000E+00  0.00000000E+00  0.00000000E+00
  0.00000000E+00  0.00000000E+00  0.00000000E+00  0.00000000E+00  0.00000000E+00
  0.00000000E+00  0.00000000E+00  0.00000000E+00  0.00000000E+00  0.00000000E+00
  0.00000000E+00  0.00000000E+00  0.00000000E+00  0.00000000E+00  0.00000000E+00
  0.00000000E+00  0.00000000E+00  0.00000000E+00  0.00000000E+00  0.00000000E+00
  0.00000000E+00  0.00000000E+00  0.00000000E+00  0.00000000E+00  0.00000000E+00
  0.00000000E+00  0.00000000E+00  0.00000000E+00  0.00000000E+00  0.00000000E+00
  0.00000000E+00  0.00000000E+00  0.00000000E+00  0.00000000E+00  0.00000000E+00
ZRed-Constraint1                           R   N=          80
  3.15142158E+00  3.15142631E+00  3.52618348E+00  3.52617767E+00  2.68695564E+00
  2.68696354E+00  2.06617985E+00  2.06623837E+00  2.06693311E+00  2.06619306E+00
  2.06623627E+00  2.06692271E+00  2.06338074E+00  2.07258746E+00  2.07312919E+00
  2.07311448E+00  2.06338942E+00  2.07257272E+00  1.91302836E+00  1.94809591E+00
  1.82876936E+00  1.82878621E+00  1.94812828E+00  1.99850392E+00  2.17411594E+00
  2.17419854E+00  1.93245717E+00  1.93515532E+00  1.93804884E+00  1.87782970E+00
  1.88866431E+00  1.88971334E+00  1.93255363E+00  1.93516982E+00  1.93795776E+00
  1.87780300E+00  1.88865520E+00  1.88972917E+00  1.88586012E+00  1.94829423E+00
  1.94524939E+00  1.89659666E+00  1.89240096E+00  1.89412418E+00  1.94527118E+00
  1.88586396E+00  1.94830351E+00  1.89237974E+00  1.89409685E+00  1.89660960E+00
 -1.05080971E+00  9.67264259E-01  3.13970419E+00 -1.04912029E+00  3.14142225E+00
  9.68951990E-01  3.12316453E+00 -1.07699922E+00  1.02464514E+00 -1.09095703E+00
  9.92064532E-01  3.09370889E+00  1.04916157E+00  3.13218313E+00 -1.04935782E+00
 -1.09098799E+00  9.92072289E-01  3.09368550E+00  3.12312688E+00 -1.07699815E+00
  1.02461507E+00  1.04907804E+00  3.13213831E+00 -1.04943378E+00  3.04359553E+00
  9.59139951E-01 -1.16209827E+00 -1.16269001E+00  3.04301452E+00  9.58535007E-01
ZRed-Constraint2                           R   N=          80
  3.17206242E+00  3.17173469E+00  3.56022236E+00  3.56034411E+00  2.68413624E+00
  2.68420712E+00  2.06729898E+00  2.06692101E+00  2.06726584E+00  2.06709414E+00
  2.06709691E+00  2.06728131E+00  2.06771416E+00  2.07048089E+00  2.06995143E+00
  2.06983272E+00  2.06816361E+00  2.07032887E+00  1.91283242E+00  1.92906310E+00
  1.91264823E+00  1.91272785E+00  1.92917532E+00  1.86706990E+00  2.08613651E+00
  2.08612990E+00  1.92785394E+00  1.93124626E+00  1.92885898E+00  1.88978968E+00
  1.89230338E+00  1.89265147E+00  1.92787068E+00  1.93104225E+00  1.92882089E+00
  1.89014557E+00  1.89239967E+00  1.89243398E+00  1.88603543E+00  1.94417089E+00
  1.93916837E+00  1.88430896E+00  1.88391775E+00  1.92397176E+00  1.93968798E+00
  1.88606705E+00  1.94364067E+00  1.88398089E+00  1.92403540E+00  1.88415890E+00
 -1.06273781E+00  1.04715700E+00  3.10060402E+00 -1.02198910E+00  3.14144098E+00
  1.08787834E+00  3.09466648E+00 -1.09606628E+00  1.00061896E+00 -1.07856179E+00
  1.01389076E+00  3.11057600E+00  1.01342753E+00  3.10588007E+00 -1.08061999E+00
 -1.07544891E+00  1.01732709E+00  3.11358247E+00  3.09775937E+00 -1.09264993E+00
  1.00360545E+00  1.01636164E+00  3.10913764E+00 -1.07779229E+00  3.09924604E+00
  1.03218315E+00 -1.12025616E+00 -1.10696248E+00  3.11214318E+00  1.04555292E+00
SymInf integers                            I   N=          26
           1           1           1           1           1           0
           0           0           0           0           0           0
           0           0           0           0           0           0
           0           0           0           0           0           0
           0           0
RotTr to input orientation                 R   N=          12
  9.99473182E-01  5.54103812E-03 -3.19789786E-02  5.51198115E-03 -9.99984312E-01
 -9.96712661E-04 -3.19839997E-02  8.19920048E-04 -9.99488045E-01 -1.53486676E+00
  9.25988524E-01 -7.41139904E-04
Number of contracted shells                I              109
Number of primitive shells                 I              186
Pure/Cartesian d shells                    I                0
Pure/Cartesian f shells                    I                0
Highest angular momentum                   I                2
Largest degree of contraction              I                6
Shell types                                I   N=         109
           0           0           0           0           0           0
          -1           1           1           1           1           1
          -2           0          -1          -1          -1          -1
          -2           0          -1          -1          -1          -1
          -2           0          -1          -1          -1          -1
          -2           0          -1          -1          -1          -1
          -2           0          -1          -1          -1          -1
          -2           0          -1          -1          -1          -1
          -2           0           0           0           0           1
           0           0           0           0           1           0
           0           0           0           1           0           0
           0           0           1           0           0           0
           0           1           0           0           0           0
           1           0           0           0           0           1
           0           0           0           0           1           0
           0           0           0           1           0           0
           0           0           1           0           0           0
           0           1           0           0           0           0
           1
Number of primitives per shell             I   N=         109
           6           3           1           1           1           1
           1           4           2           1           1           1
           1           6           3           1           1           1
           1           6           3           1           1           1
           1           6           3           1           1           1
           1           6           3           1           1           1
           1           6           3           1           1           1
           1           6           3           1           1           1
           1           3           1           1           1           1
           3           1           1           1           1           3
           1           1           1           1           3           1
           1           1           1           3           1           1
           1           1           3           1           1           1
           1           3           1           1           1           1
           3           1           1           1           1           3
           1           1           1           1           3           1
           1           1           1           3           1           1
           1           1           3           1           1           1
           1
Shell to atom map                          I   N=         109
           1           1           1           1           1           1
           1           1           1           1           1           1
           1           2           2           2           2           2
           2           3           3           3           3           3
           3           4           4           4           4           4
           4           5           5           5           5           5
           5           6           6           6           6           6
           6           7           7           7           7           7
           7           8           8           8           8           8
           9           9           9           9           9          10
          10          10          10          10          11          11
          11          11          11          12          12          12
          12          12          13          13          13          13
          13          14          14          14          14          14
          15          15          15          15          15          16
          16          16          16          16          17          17
          17          17          17          18          18          18
          18          18          19          19          19          19
          19
Primitive exponents                        R   N=         186
  6.93792300E+04  1.03549400E+04  2.33387960E+03  6.57142950E+02  2.14301130E+02
  7.76291680E+01  7.76291680E+01  3.06308070E+01  1.28012950E+01  3.92686600E+00
  1.45234300E+00  2.56234000E-01  9.42790000E-02  3.31000000E-02  3.35483190E+02
  7.89003660E+01  2.49881500E+01  9.21971100E+00  3.62114000E+00  1.45131000E+00
  5.04977000E-01  1.86317000E-01  6.54320000E-02  4.50000000E-01  8.58850000E+03
  1.29723000E+03  2.99296000E+02  8.73771000E+01  2.56789000E+01  3.74004000E+00
  4.21175000E+01  9.62837000E+00  2.85332000E+00  9.05661000E-01  2.55611000E-01
  8.45000000E-02  1.29200000E+00  8.58850000E+03  1.29723000E+03  2.99296000E+02
  8.73771000E+01  2.56789000E+01  3.74004000E+00  4.21175000E+01  9.62837000E+00
  2.85332000E+00  9.05661000E-01  2.55611000E-01  8.45000000E-02  1.29200000E+00
  4.56324000E+03  6.82024000E+02  1.54973000E+02  4.44553000E+01  1.30290000E+01
  1.82773000E+00  2.09642000E+01  4.80331000E+00  1.45933000E+00  4.83456000E-01
  1.45585000E-01  4.38000000E-02  6.26000000E-01  4.56324000E+03  6.82024000E+02
  1.54973000E+02  4.44553000E+01  1.30290000E+01  1.82773000E+00  2.09642000E+01
  4.80331000E+00  1.45933000E+00  4.83456000E-01  1.45585000E-01  4.38000000E-02
  6.26000000E-01  4.56324000E+03  6.82024000E+02  1.54973000E+02  4.44553000E+01
  1.30290000E+01  1.82773000E+00  2.09642000E+01  4.80331000E+00  1.45933000E+00
  4.83456000E-01  1.45585000E-01  4.38000000E-02  6.26000000E-01  4.56324000E+03
  6.82024000E+02  1.54973000E+02  4.44553000E+01  1.30290000E+01  1.82773000E+00
  2.09642000E+01  4.80331000E+00  1.45933000E+00  4.83456000E-01  1.45585000E-01
  4.38000000E-02  6.26000000E-01  3.38650000E+01  5.09479000E+00  1.15879000E+00
  3.25840000E-01  1.02741000E-01  3.60000000E-02  7.50000000E-01  3.38650000E+01
  5.09479000E+00  1.15879000E+00  3.25840000E-01  1.02741000E-01  3.60000000E-02
  7.50000000E-01  3.38650000E+01  5.09479000E+00  1.15879000E+00  3.25840000E-01
  1.02741000E-01  3.60000000E-02  7.50000000E-01  3.38650000E+01  5.09479000E+00
  1.15879000E+00  3.25840000E-01  1.02741000E-01  3.60000000E-02  7.50000000E-01
  3.38650000E+01  5.09479000E+00  1.15879000E+00  3.25840000E-01  1.02741000E-01
  3.60000000E-02  7.50000000E-01  3.38650000E+01  5.09479000E+00  1.15879000E+00
  3.25840000E-01  1.02741000E-01  3.60000000E-02  7.50000000E-01  3.38650000E+01
  5.09479000E+00  1.15879000E+00  3.25840000E-01  1.02741000E-01  3.60000000E-02
  7.50000000E-01  3.38650000E+01  5.09479000E+00  1.15879000E+00  3.25840000E-01
  1.02741000E-01  3.60000000E-02  7.50000000E-01  3.38650000E+01  5.09479000E+00
  1.15879000E+00  3.25840000E-01  1.02741000E-01  3.60000000E-02  7.50000000E-01
  3.38650000E+01  5.09479000E+00  1.15879000E+00  3.25840000E-01  1.02741000E-01
  3.60000000E-02  7.50000000E-01  3.38650000E+01  5.09479000E+00  1.15879000E+00
  3.25840000E-01  1.02741000E-01  3.60000000E-02  7.50000000E-01  3.38650000E+01
  5.09479000E+00  1.15879000E+00  3.25840000E-01  1.02741000E-01  3.60000000E-02
  7.50000000E-01
Contraction coefficients                   R   N=         186
  7.57000408E-04  5.93200320E-03  3.10880168E-02  1.24967067E-01  3.86897209E-01
  5.54888299E-01  1.77880945E-01  6.27764806E-01  2.47622924E-01  1.00000000E+00
  1.00000000E+00  1.00000000E+00  1.00000000E+00  1.00000000E+00  8.86599815E-03
  6.82989857E-02  2.90957939E-01  7.32116847E-01  6.19879440E-01  4.39148312E-01
  1.00000000E+00  1.00000000E+00  1.00000000E+00  1.00000000E+00  1.89515008E-03
  1.43859006E-02  7.07320031E-02  2.40001011E-01  5.94797026E-01  2.80802012E-01
  1.13889012E-01  9.20811101E-01 -3.27447036E-03  1.00000000E+00  1.00000000E+00
  1.00000000E+00  1.00000000E+00  1.89515008E-03  1.43859006E-02  7.07320031E-02
  2.40001011E-01  5.94797026E-01  2.80802012E-01  1.13889012E-01  9.20811101E-01
 -3.27447036E-03  1.00000000E+00  1.00000000E+00  1.00000000E+00  1.00000000E+00
  1.96665025E-03  1.52306019E-02  7.61269097E-02  2.60801033E-01  6.16462078E-01
  2.21006028E-01  1.14660081E-01  9.19999648E-01 -3.03068213E-03  1.00000000E+00
  1.00000000E+00  1.00000000E+00  1.00000000E+00  1.96665025E-03  1.52306019E-02
  7.61269097E-02  2.60801033E-01  6.16462078E-01  2.21006028E-01  1.14660081E-01
  9.19999648E-01 -3.03068213E-03  1.00000000E+00  1.00000000E+00  1.00000000E+00
  1.00000000E+00  1.96665025E-03  1.52306019E-02  7.61269097E-02  2.60801033E-01
  6.16462078E-01  2.21006028E-01  1.14660081E-01  9.19999648E-01 -3.03068213E-03
  1.00000000E+00  1.00000000E+00  1.00000000E+00  1.00000000E+00  1.96665025E-03
  1.52306019E-02  7.61269097E-02  2.60801033E-01  6.16462078E-01  2.21006028E-01
  1.14660081E-01  9.19999648E-01 -3.03068213E-03  1.00000000E+00  1.00000000E+00
  1.00000000E+00  1.00000000E+00  2.54938145E-02  1.90373109E-01  8.52161486E-01
  1.00000000E+00  1.00000000E+00  1.00000000E+00  1.00000000E+00  2.54938145E-02
  1.90373109E-01  8.52161486E-01  1.00000000E+00  1.00000000E+00  1.00000000E+00
  1.00000000E+00  2.54938145E-02  1.90373109E-01  8.52161486E-01  1.00000000E+00
  1.00000000E+00  1.00000000E+00  1.00000000E+00  2.54938145E-02  1.90373109E-01
  8.52161486E-01  1.00000000E+00  1.00000000E+00  1.00000000E+00  1.00000000E+00
  2.54938145E-02  1.90373109E-01  8.52161486E-01  1.00000000E+00  1.00000000E+00
  1.00000000E+00  1.00000000E+00  2.54938145E-02  1.90373109E-01  8.52161486E-01
  1.00000000E+00  1.00000000E+00  1.00000000E+00  1.00000000E+00  2.54938145E-02
  1.90373109E-01  8.52161486E-01  1.00000000E+00  1.00000000E+00  1.00000000E+00
  1.00000000E+00  2.54938145E-02  1.90373109E-01  8.52161486E-01  1.00000000E+00
  1.00000000E+00  1.00000000E+00  1.00000000E+00  2.54938145E-02  1.90373109E-01
  8.52161486E-01  1.00000000E+00  1.00000000E+00  1.00000000E+00  1.00000000E+00
  2.54938145E-02  1.90373109E-01  8.52161486E-01  1.00000000E+00  1.00000000E+00
  1.00000000E+00  1.00000000E+00  2.54938145E-02  1.90373109E-01  8.52161486E-01
  1.00000000E+00  1.00000000E+00  1.00000000E+00  1.00000000E+00  2.54938145E-02
  1.90373109E-01  8.52161486E-01  1.00000000E+00  1.00000000E+00  1.00000000E+00
  1.00000000E+00
P(S=P) Contraction coefficients            R   N=         186
  0.00000000E+00  0.00000000E+00  0.00000000E+00  0.00000000E+00  0.00000000E+00
  0.00000000E+00  0.00000000E+00  0.00000000E+00  0.00000000E+00  0.00000000E+00
  0.00000000E+00  0.00000000E+00  0.00000000E+00  1.00000000E+00  0.00000000E+00
  0.00000000E+00  0.00000000E+00  0.00000000E+00  0.00000000E+00  0.00000000E+00
  0.00000000E+00  0.00000000E+00  0.00000000E+00  0.00000000E+00  0.00000000E+00
  0.00000000E+00  0.00000000E+00  0.00000000E+00  0.00000000E+00  0.00000000E+00
  3.65113974E-02  2.37152983E-01  8.19701941E-01  1.00000000E+00  1.00000000E+00
  1.00000000E+00  0.00000000E+00  0.00000000E+00  0.00000000E+00  0.00000000E+00