DMMS-DMMS                                                               
Freq      RB3LYP                                                      6-311++G(d,p)       
Number of atoms                            I               19
Info1-9                                    I   N=           9
          54          52        1002           0           0         100
           6          18        -502
Full Title                                 C   N=           1
DMMS-DMMS   
Route                                      C   N=          10
# opt=calcfc freq b3lyp/6-311++g(d,p) em=gd3 pop=(nbo,savenb
o) scrf=(SMD,Solvent=Generic,Read) geom=connectivity        
Charge                                     I                0
Multiplicity                               I                1
Number of electrons                        I               66
Number of alpha electrons                  I               33
Number of beta electrons                   I               33
Number of basis functions                  I              246
Number of independent functions            I              246
Number of point charges in /Mol/           I                0
Number of translation vectors              I                0
Atomic numbers                             I   N=          19
          14           8           8           6           6           6
           6           1           1           1           1           1
           1           1           1           1           1           1
           1
Nuclear charges                            R   N=          19
  1.40000000E+01  8.00000000E+00  8.00000000E+00  6.00000000E+00  6.00000000E+00
  6.00000000E+00  6.00000000E+00  1.00000000E+00  1.00000000E+00  1.00000000E+00
  1.00000000E+00  1.00000000E+00  1.00000000E+00  1.00000000E+00  1.00000000E+00
  1.00000000E+00  1.00000000E+00  1.00000000E+00  1.00000000E+00
Current cartesian coordinates              R   N=          57
 -1.74724328E-05  8.91288343E-01 -1.12086986E-05  2.01196986E+00 -9.25119688E-01
 -1.61827545E+00 -2.01169289E+00 -9.25367240E-01  1.61836357E+00  1.66922655E+00
  2.79541553E+00  2.45085749E+00 -1.66958905E+00  2.79496912E+00 -2.45100628E+00
  3.74495511E+00 -2.64367980E+00 -4.75821310E-01 -3.74478121E+00 -2.64383143E+00
  4.75916425E-01  3.50806144E-01  4.06080054E+00  3.41972252E+00  2.53524210E+00
  1.57769415E+00  3.88017298E+00  3.15839045E+00  3.95316527E+00  1.60121755E+00
 -3.51392626E-01  4.06048300E+00 -3.42000651E+00 -2.53542322E+00  1.57696840E+00
 -3.88019515E+00 -3.15892835E+00  3.95255287E+00 -1.60144577E+00  4.66852534E+00
 -3.71577741E+00 -1.97945569E+00  2.78520210E+00 -3.97762541E+00  7.87189248E-01
  5.20455280E+00 -1.64292811E+00  6.03709296E-01 -5.20555909E+00 -1.64285344E+00
 -6.01809590E-01 -4.66683503E+00 -3.71738334E+00  1.97944367E+00 -2.78542012E+00
 -3.97647846E+00 -7.88768560E-01
Number of symbols in /Mol/                 I                0
Force Field                                I                0
Atom Types                                 C   N=          19
                                                            
                                                            
                                                            
                                                
Int Atom Types                             I   N=          19
           0           0           0           0           0           0
           0           0           0           0           0           0
           0           0           0           0           0           0
           0
MM charges                                 R   N=          19
  0.00000000E+00  0.00000000E+00  0.00000000E+00  0.00000000E+00  0.00000000E+00
  0.00000000E+00  0.00000000E+00  0.00000000E+00  0.00000000E+00  0.00000000E+00
  0.00000000E+00  0.00000000E+00  0.00000000E+00  0.00000000E+00  0.00000000E+00
  0.00000000E+00  0.00000000E+00  0.00000000E+00  0.00000000E+00
Integer atomic weights                     I   N=          19
          28          16          16          12          12          12
          12           1           1           1           1           1
           1           1           1           1           1           1
           1
Real atomic weights                        R   N=          19
  2.79769284E+01  1.59949146E+01  1.59949146E+01  1.20000000E+01  1.20000000E+01
  1.20000000E+01  1.20000000E+01  1.00782504E+00  1.00782504E+00  1.00782504E+00
  1.00782504E+00  1.00782504E+00  1.00782504E+00  1.00782504E+00  1.00782504E+00
  1.00782504E+00  1.00782504E+00  1.00782504E+00  1.00782504E+00
Atom fragment info                         I   N=          19
           0           0           0           0           0           0
           0           0           0           0           0           0
           0           0           0           0           0           0
           0
Atom residue num                           I   N=          19
           0           0           0           0           0           0
           0           0           0           0           0           0
           0           0           0           0           0           0
           0
Nuclear spins                              I   N=          19
           0           0           0           0           0           0
           0           1           1           1           1           1
           1           1           1           1           1           1
           1
Nuclear ZEff                               R   N=          19
 -1.22500000E+01 -5.60000000E+00 -5.60000000E+00 -3.60000000E+00 -3.60000000E+00
 -3.60000000E+00 -3.60000000E+00 -1.00000000E+00 -1.00000000E+00 -1.00000000E+00
 -1.00000000E+00 -1.00000000E+00 -1.00000000E+00 -1.00000000E+00 -1.00000000E+00
 -1.00000000E+00 -1.00000000E+00 -1.00000000E+00 -1.00000000E+00
Nuclear ZNuc                               R   N=          19
  1.40000000E+01  8.00000000E+00  8.00000000E+00  6.00000000E+00  6.00000000E+00
  6.00000000E+00  6.00000000E+00  1.00000000E+00  1.00000000E+00  1.00000000E+00
  1.00000000E+00  1.00000000E+00  1.00000000E+00  1.00000000E+00  1.00000000E+00
  1.00000000E+00  1.00000000E+00  1.00000000E+00  1.00000000E+00
Nuclear QMom                               R   N=          19
  0.00000000E+00  0.00000000E+00  0.00000000E+00  0.00000000E+00  0.00000000E+00
  0.00000000E+00  0.00000000E+00  0.00000000E+00  0.00000000E+00  0.00000000E+00
  0.00000000E+00  0.00000000E+00  0.00000000E+00  0.00000000E+00  0.00000000E+00
  0.00000000E+00  0.00000000E+00  0.00000000E+00  0.00000000E+00
Nuclear GFac                               R   N=          19
  0.00000000E+00  0.00000000E+00  0.00000000E+00  0.00000000E+00  0.00000000E+00
  0.00000000E+00  0.00000000E+00  2.79284600E+00  2.79284600E+00  2.79284600E+00
  2.79284600E+00  2.79284600E+00  2.79284600E+00  2.79284600E+00  2.79284600E+00
  2.79284600E+00  2.79284600E+00  2.79284600E+00  2.79284600E+00
MicOpt                                     I   N=          19
          -1          -1          -1          -1          -1          -1
          -1          -1          -1          -1          -1          -1
          -1          -1          -1          -1          -1          -1
          -1
Number of residues                         I                0
Number of secondary structures             I                0
Redundant internal dimensions              I   N=           4
          80          18          32          30
Redundant internal coordinate indices      I   N=         320
           1           2           0           0           1           3
           0           0           1           4           0           0
           1           5           0           0           2           6
           0           0           3           7           0           0
           4           8           0           0           4           9
           0           0           4          10           0           0
           5          11           0           0           5          12
           0           0           5          13           0           0
           6          14           0           0           6          15
           0           0           6          16           0           0
           7          17           0           0           7          18
           0           0           7          19           0           0
           2           1           3           0           2           1
           4           0           2           1           5           0
           3           1           4           0           3           1
           5           0           4           1           5           0
           1           2           6           0           1           3
           7           0           1           4           8           0
           1           4           9           0           1           4
          10           0           8           4           9           0
           8           4          10           0           9           4
          10           0           1           5          11           0
           1           5          12           0           1           5
          13           0          11           5          12           0
          11           5          13           0          12           5
          13           0           2           6          14           0
           2           6          15           0           2           6
          16           0          14           6          15           0
          14           6          16           0          15           6
          16           0           3           7          17           0
           3           7          18           0           3           7
          19           0          17           7          18           0
          17           7          19           0          18           7
          19           0           3           1           2           6
           4           1           2           6           5           1
           2           6           2           1           3           7
           4           1           3           7           5           1
           3           7           2           1           4           8
           2           1           4           9           2           1
           4          10           3           1           4           8
           3           1           4           9           3           1
           4          10           5           1           4           8
           5           1           4           9           5           1
           4          10           2           1           5          11
           2           1           5          12           2           1
           5          13           3           1           5          11
           3           1           5          12           3           1
           5          13           4           1           5          11
           4           1           5          12           4           1
           5          13           1           2           6          14
           1           2           6          15           1           2
           6          16           1           3           7          17
           1           3           7          18           1           3
           7          19
Redundant internal coordinates             R   N=          80
  3.15693052E+00  3.15693085E+00  3.52403652E+00  3.52403840E+00  2.69478909E+00
  2.69479123E+00  2.06836434E+00  2.06779376E+00  2.06878747E+00  2.06836376E+00
  2.06779481E+00  2.06878823E+00  2.06477398E+00  2.07261487E+00  2.07299680E+00
  2.07299838E+00  2.06477387E+00  2.07261910E+00  1.91538012E+00  1.94497485E+00
  1.82992229E+00  1.82992577E+00  1.94497436E+00  2.00009548E+00  2.16454259E+00
  2.16451404E+00  1.93307322E+00  1.94004205E+00  1.93661760E+00  1.87910871E+00
  1.88477025E+00  1.88806896E+00  1.93308433E+00  1.94002148E+00  1.93662241E+00
  1.87911032E+00  1.88476934E+00  1.88807319E+00  1.88604305E+00  1.95088739E+00
  1.94518450E+00  1.89306288E+00  1.89120297E+00  1.89590076E+00  1.94515191E+00
  1.88604212E+00  1.95091033E+00  1.89120141E+00  1.89590886E+00  1.89306705E+00
 -1.08606180E+00  9.33011124E-01  3.10631802E+00 -1.08633660E+00  3.10604069E+00
  9.32731787E-01  3.08155524E+00 -1.11341236E+00  9.88471224E-01 -1.13069685E+00
  9.57520859E-01  3.05940444E+00  1.00723696E+00  3.09545467E+00 -1.08584706E+00
 -1.13066500E+00  9.57548568E-01  3.05942693E+00  3.08158940E+00 -1.11338234E+00
  9.88496024E-01  1.00726695E+00  3.09548052E+00 -1.08582643E+00  3.03650964E+00
  9.54737404E-01 -1.17057598E+00 -1.17149898E+00  3.03560838E+00  9.53817882E-01
ZRed-IntVec                                I   N=          80
           0           0           0           0           0           0
           0           0           0           0           0           0
           0           0           0           0           0           0
           0           0           0           0           0           0
           0           0           0           0           0           0
           0           0           0           0           0           0
           0           0           0           0           0           0
           0           0           0           0           0           0
           0           0           0           0           0           0
           0           0           0           0           0           0
           0           0           0           0           0           0
           0           0           0           0           0           0
           0           0           0           0           0           0
           0           0
ZRed-FPVec                                 R   N=          80
  0.00000000E+00  0.00000000E+00  0.00000000E+00  0.00000000E+00  0.00000000E+00
  0.00000000E+00  0.00000000E+00  0.00000000E+00  0.00000000E+00  0.00000000E+00
  0.00000000E+00  0.00000000E+00  0.00000000E+00  0.00000000E+00  0.00000000E+00
  0.00000000E+00  0.00000000E+00  0.00000000E+00  0.00000000E+00  0.00000000E+00
  0.00000000E+00  0.00000000E+00  0.00000000E+00  0.00000000E+00  0.00000000E+00
  0.00000000E+00  0.00000000E+00  0.00000000E+00  0.00000000E+00  0.00000000E+00
  0.00000000E+00  0.00000000E+00  0.00000000E+00  0.00000000E+00  0.00000000E+00
  0.00000000E+00  0.00000000E+00  0.00000000E+00  0.00000000E+00  0.00000000E+00
  0.00000000E+00  0.00000000E+00  0.00000000E+00  0.00000000E+00  0.00000000E+00
  0.00000000E+00  0.00000000E+00  0.00000000E+00  0.00000000E+00  0.00000000E+00
  0.00000000E+00  0.00000000E+00  0.00000000E+00  0.00000000E+00  0.00000000E+00
  0.00000000E+00  0.00000000E+00  0.00000000E+00  0.00000000E+00  0.00000000E+00
  0.00000000E+00  0.00000000E+00  0.00000000E+00  0.00000000E+00  0.00000000E+00
  0.00000000E+00  0.00000000E+00  0.00000000E+00  0.00000000E+00  0.00000000E+00
  0.00000000E+00  0.00000000E+00  0.00000000E+00  0.00000000E+00  0.00000000E+00
  0.00000000E+00  0.00000000E+00  0.00000000E+00  0.00000000E+00  0.00000000E+00
ZRed-Constraint1                           R   N=          80
  3.15693052E+00  3.15693085E+00  3.52403652E+00  3.52403840E+00  2.69478909E+00
  2.69479123E+00  2.06836434E+00  2.06779376E+00  2.06878747E+00  2.06836376E+00
  2.06779481E+00  2.06878823E+00  2.06477398E+00  2.07261487E+00  2.07299680E+00
  2.07299838E+00  2.06477387E+00  2.07261910E+00  1.91538012E+00  1.94497485E+00
  1.82992229E+00  1.82992577E+00  1.94497436E+00  2.00009548E+00  2.16454259E+00
  2.16451404E+00  1.93307322E+00  1.94004205E+00  1.93661760E+00  1.87910871E+00
  1.88477025E+00  1.88806896E+00  1.93308433E+00  1.94002148E+00  1.93662241E+00
  1.87911032E+00  1.88476934E+00  1.88807319E+00  1.88604305E+00  1.95088739E+00
  1.94518450E+00  1.89306288E+00  1.89120297E+00  1.89590076E+00  1.94515191E+00
  1.88604212E+00  1.95091033E+00  1.89120141E+00  1.89590886E+00  1.89306705E+00
 -1.08606180E+00  9.33011124E-01  3.10631802E+00 -1.08633660E+00  3.10604069E+00
  9.32731787E-01  3.08155524E+00 -1.11341236E+00  9.88471224E-01 -1.13069685E+00
  9.57520859E-01  3.05940444E+00  1.00723696E+00  3.09545467E+00 -1.08584706E+00
 -1.13066500E+00  9.57548568E-01  3.05942693E+00  3.08158940E+00 -1.11338234E+00
  9.88496024E-01  1.00726695E+00  3.09548052E+00 -1.08582643E+00  3.03650964E+00
  9.54737404E-01 -1.17057598E+00 -1.17149898E+00  3.03560838E+00  9.53817882E-01
ZRed-Constraint2                           R   N=          80
  3.17206242E+00  3.17173469E+00  3.56022236E+00  3.56034411E+00  2.68413624E+00
  2.68420712E+00  2.06729898E+00  2.06692101E+00  2.06726584E+00  2.06709414E+00
  2.06709691E+00  2.06728131E+00  2.06771416E+00  2.07048089E+00  2.06995143E+00
  2.06983272E+00  2.06816361E+00  2.07032887E+00  1.91283242E+00  1.92906310E+00
  1.91264823E+00  1.91272785E+00  1.92917532E+00  1.86706990E+00  2.08613651E+00
  2.08612990E+00  1.92785394E+00  1.93124626E+00  1.92885898E+00  1.88978968E+00
  1.89230338E+00  1.89265147E+00  1.92787068E+00  1.93104225E+00  1.92882089E+00
  1.89014557E+00  1.89239967E+00  1.89243398E+00  1.88603543E+00  1.94417089E+00
  1.93916837E+00  1.88430896E+00  1.88391775E+00  1.92397176E+00  1.93968798E+00
  1.88606705E+00  1.94364067E+00  1.88398089E+00  1.92403540E+00  1.88415890E+00
 -1.06273781E+00  1.04715700E+00  3.10060402E+00 -1.02198910E+00  3.14144098E+00
  1.08787834E+00  3.09466648E+00 -1.09606628E+00  1.00061896E+00 -1.07856179E+00
  1.01389076E+00  3.11057600E+00  1.01342753E+00  3.10588007E+00 -1.08061999E+00
 -1.07544891E+00  1.01732709E+00  3.11358247E+00  3.09775937E+00 -1.09264993E+00
  1.00360545E+00  1.01636164E+00  3.10913764E+00 -1.07779229E+00  3.09924604E+00
  1.03218315E+00 -1.12025616E+00 -1.10696248E+00  3.11214318E+00  1.04555292E+00
SymInf integers                            I   N=          26
           1           1           1           1           1           0
           0           0           0           0           0           0
           0           0           0           0           0           0
           0           0           0           0           0           0
           0           0
RotTr to input orientation                 R   N=          12
  9.99358345E-01  5.87849787E-03 -3.53318761E-02  5.84174437E-03 -9.99982283E-01
 -1.14337940E-03 -3.53379715E-02  9.36245956E-04 -9.99374980E-01 -1.53464147E+00
  9.38816014E-01 -7.96765007E-04
Number of contracted shells                I              109
Number of primitive shells                 I              186
Pure/Cartesian d shells                    I                0
Pure/Cartesian f shells                    I                0
Highest angular momentum                   I                2
Largest degree of contraction              I                6
Shell types                                I   N=         109
           0           0           0           0           0           0
          -1           1           1           1           1           1
          -2           0          -1          -1          -1          -1
          -2           0          -1          -1          -1          -1
          -2           0          -1          -1          -1          -1
          -2           0          -1          -1          -1          -1
          -2           0          -1          -1          -1          -1
          -2           0          -1          -1          -1          -1
          -2           0           0           0           0           1
           0           0           0           0           1           0
           0           0           0           1           0           0
           0           0           1           0           0           0
           0           1           0           0           0           0
           1           0           0           0           0           1
           0           0           0           0           1           0
           0           0           0           1           0           0
           0           0           1           0           0           0
           0           1           0           0           0           0
           1
Number of primitives per shell             I   N=         109
           6           3           1           1           1           1
           1           4           2           1           1           1
           1           6           3           1           1           1
           1           6           3           1           1           1
           1           6           3           1           1           1
           1           6           3           1           1           1
           1           6           3           1           1           1
           1           6           3           1           1           1
           1           3           1           1           1           1
           3           1           1           1           1           3
           1           1           1           1           3           1
           1           1           1           3           1           1
           1           1           3           1           1           1
           1           3           1           1           1           1
           3           1           1           1           1           3
           1           1           1           1           3           1
           1           1           1           3           1           1
           1           1           3           1           1           1
           1
Shell to atom map                          I   N=         109
           1           1           1           1           1           1
           1           1           1           1           1           1
           1           2           2           2           2           2
           2           3           3           3           3           3
           3           4           4           4           4           4
           4           5           5           5           5           5
           5           6           6           6           6           6
           6           7           7           7           7           7
           7           8           8           8           8           8
           9           9           9           9           9          10
          10          10          10          10          11          11
          11          11          11          12          12          12
          12          12          13          13          13          13
          13          14          14          14          14          14
          15          15          15          15          15          16
          16          16          16          16          17          17
          17          17          17          18          18          18
          18          18          19          19          19          19
          19
Primitive exponents                        R   N=         186
  6.93792300E+04  1.03549400E+04  2.33387960E+03  6.57142950E+02  2.14301130E+02
  7.76291680E+01  7.76291680E+01  3.06308070E+01  1.28012950E+01  3.92686600E+00
  1.45234300E+00  2.56234000E-01  9.42790000E-02  3.31000000E-02  3.35483190E+02
  7.89003660E+01  2.49881500E+01  9.21971100E+00  3.62114000E+00  1.45131000E+00
  5.04977000E-01  1.86317000E-01  6.54320000E-02  4.50000000E-01  8.58850000E+03
  1.29723000E+03  2.99296000E+02  8.73771000E+01  2.56789000E+01  3.74004000E+00
  4.21175000E+01  9.62837000E+00  2.85332000E+00  9.05661000E-01  2.55611000E-01
  8.45000000E-02  1.29200000E+00  8.58850000E+03  1.29723000E+03  2.99296000E+02
  8.73771000E+01  2.56789000E+01  3.74004000E+00  4.21175000E+01  9.62837000E+00
  2.85332000E+00  9.05661000E-01  2.55611000E-01  8.45000000E-02  1.29200000E+00
  4.56324000E+03  6.82024000E+02  1.54973000E+02  4.44553000E+01  1.30290000E+01
  1.82773000E+00  2.09642000E+01  4.80331000E+00  1.45933000E+00  4.83456000E-01
  1.45585000E-01  4.38000000E-02  6.26000000E-01  4.56324000E+03  6.82024000E+02
  1.54973000E+02  4.44553000E+01  1.30290000E+01  1.82773000E+00  2.09642000E+01
  4.80331000E+00  1.45933000E+00  4.83456000E-01  1.45585000E-01  4.38000000E-02
  6.26000000E-01  4.56324000E+03  6.82024000E+02  1.54973000E+02  4.44553000E+01
  1.30290000E+01  1.82773000E+00  2.09642000E+01  4.80331000E+00  1.45933000E+00
  4.83456000E-01  1.45585000E-01  4.38000000E-02  6.26000000E-01  4.56324000E+03
  6.82024000E+02  1.54973000E+02  4.44553000E+01  1.30290000E+01  1.82773000E+00
  2.09642000E+01  4.80331000E+00  1.45933000E+00  4.83456000E-01  1.45585000E-01
  4.38000000E-02  6.26000000E-01  3.38650000E+01  5.09479000E+00  1.15879000E+00
  3.25840000E-01  1.02741000E-01  3.60000000E-02  7.50000000E-01  3.38650000E+01
  5.09479000E+00  1.15879000E+00  3.25840000E-01  1.02741000E-01  3.60000000E-02
  7.50000000E-01  3.38650000E+01  5.09479000E+00  1.15879000E+00  3.25840000E-01
  1.02741000E-01  3.60000000E-02  7.50000000E-01  3.38650000E+01  5.09479000E+00
  1.15879000E+00  3.25840000E-01  1.02741000E-01  3.60000000E-02  7.50000000E-01
  3.38650000E+01  5.09479000E+00  1.15879000E+00  3.25840000E-01  1.02741000E-01
  3.60000000E-02  7.50000000E-01  3.38650000E+01  5.09479000E+00  1.15879000E+00
  3.25840000E-01  1.02741000E-01  3.60000000E-02  7.50000000E-01  3.38650000E+01
  5.09479000E+00  1.15879000E+00  3.25840000E-01  1.02741000E-01  3.60000000E-02
  7.50000000E-01  3.38650000E+01  5.09479000E+00  1.15879000E+00  3.25840000E-01
  1.02741000E-01  3.60000000E-02  7.50000000E-01  3.38650000E+01  5.09479000E+00
  1.15879000E+00  3.25840000E-01  1.02741000E-01  3.60000000E-02  7.50000000E-01
  3.38650000E+01  5.09479000E+00  1.15879000E+00  3.25840000E-01  1.02741000E-01
  3.60000000E-02  7.50000000E-01  3.38650000E+01  5.09479000E+00  1.15879000E+00
  3.25840000E-01  1.02741000E-01  3.60000000E-02  7.50000000E-01  3.38650000E+01
  5.09479000E+00  1.15879000E+00  3.25840000E-01  1.02741000E-01  3.60000000E-02
  7.50000000E-01
Contraction coefficients                   R   N=         186
  7.57000408E-04  5.93200320E-03  3.10880168E-02  1.24967067E-01  3.86897209E-01
  5.54888299E-01  1.77880945E-01  6.27764806E-01  2.47622924E-01  1.00000000E+00
  1.00000000E+00  1.00000000E+00  1.00000000E+00  1.00000000E+00  8.86599815E-03
  6.82989857E-02  2.90957939E-01  7.32116847E-01  6.19879440E-01  4.39148312E-01
  1.00000000E+00  1.00000000E+00  1.00000000E+00  1.00000000E+00  1.89515008E-03
  1.43859006E-02  7.07320031E-02  2.40001011E-01  5.94797026E-01  2.80802012E-01
  1.13889012E-01  9.20811101E-01 -3.27447036E-03  1.00000000E+00  1.00000000E+00
  1.00000000E+00  1.00000000E+00  1.89515008E-03  1.43859006E-02  7.07320031E-02
  2.40001011E-01  5.94797026E-01  2.80802012E-01  1.13889012E-01  9.20811101E-01
 -3.27447036E-03  1.00000000E+00  1.00000000E+00  1.00000000E+00  1.00000000E+00
  1.96665025E-03  1.52306019E-02  7.61269097E-02  2.60801033E-01  6.16462078E-01
  2.21006028E-01  1.14660081E-01  9.19999648E-01 -3.03068213E-03  1.00000000E+00
  1.00000000E+00  1.00000000E+00  1.00000000E+00  1.96665025E-03  1.52306019E-02
  7.61269097E-02  2.60801033E-01  6.16462078E-01  2.21006028E-01  1.14660081E-01
  9.19999648E-01 -3.03068213E-03  1.00000000E+00  1.00000000E+00  1.00000000E+00
  1.00000000E+00  1.96665025E-03  1.52306019E-02  7.61269097E-02  2.60801033E-01
  6.16462078E-01  2.21006028E-01  1.14660081E-01  9.19999648E-01 -3.03068213E-03
  1.00000000E+00  1.00000000E+00  1.00000000E+00  1.00000000E+00  1.96665025E-03
  1.52306019E-02  7.61269097E-02  2.60801033E-01  6.16462078E-01  2.21006028E-01
  1.14660081E-01  9.19999648E-01 -3.03068213E-03  1.00000000E+00  1.00000000E+00
  1.00000000E+00  1.00000000E+00  2.54938145E-02  1.90373109E-01  8.52161486E-01
  1.00000000E+00  1.00000000E+00  1.00000000E+00  1.00000000E+00  2.54938145E-02
  1.90373109E-01  8.52161486E-01  1.00000000E+00  1.00000000E+00  1.00000000E+00
  1.00000000E+00  2.54938145E-02  1.90373109E-01  8.52161486E-01  1.00000000E+00
  1.00000000E+00  1.00000000E+00  1.00000000E+00  2.54938145E-02  1.90373109E-01
  8.52161486E-01  1.00000000E+00  1.00000000E+00  1.00000000E+00  1.00000000E+00
  2.54938145E-02  1.90373109E-01  8.52161486E-01  1.00000000E+00  1.00000000E+00
  1.00000000E+00  1.00000000E+00  2.54938145E-02  1.90373109E-01  8.52161486E-01
  1.00000000E+00  1.00000000E+00  1.00000000E+00  1.00000000E+00  2.54938145E-02
  1.90373109E-01  8.52161486E-01  1.00000000E+00  1.00000000E+00  1.00000000E+00
  1.00000000E+00  2.54938145E-02  1.90373109E-01  8.52161486E-01  1.00000000E+00
  1.00000000E+00  1.00000000E+00  1.00000000E+00  2.54938145E-02  1.90373109E-01
  8.52161486E-01  1.00000000E+00  1.00000000E+00  1.00000000E+00  1.00000000E+00
  2.54938145E-02  1.90373109E-01  8.52161486E-01  1.00000000E+00  1.00000000E+00
  1.00000000E+00  1.00000000E+00  2.54938145E-02  1.90373109E-01  8.52161486E-01
  1.00000000E+00  1.00000000E+00  1.00000000E+00  1.00000000E+00  2.54938145E-02
  1.90373109E-01  8.52161486E-01  1.00000000E+00  1.00000000E+00  1.00000000E+00
  1.00000000E+00
P(S=P) Contraction coefficients            R   N=         186
  0.00000000E+00  0.00000000E+00  0.00000000E+00  0.00000000E+00  0.00000000E+00
  0.00000000E+00  0.00000000E+00  0.00000000E+00  0.00000000E+00  0.00000000E+00
  0.00000000E+00  0.00000000E+00  0.00000000E+00  1.00000000E+00  0.00000000E+00
  0.00000000E+00  0.00000000E+00  0.00000000E+00  0.00000000E+00  0.00000000E+00
  0.00000000E+00  0.00000000E+00  0.00000000E+00  0.00000000E+00  0.00000000E+00
  0.00000000E+00  0.00000000E+00  0.00000000E+00  0.00000000E+00  0.00000000E+00
  3.65113974E-02  2.37152983E-01  8.19701941E-01  1.00000000E+00  1.00000000E+00
  1.00000000E+00  0.00000000E+00  0.00000000E+00  0.00000000E+00  0.00000000E+00