LAMMPS data file via write_data, version 29 Sep 2021, timestep = 5000000

14160 atoms
26 atom types
13000 bonds
23 bond types
22360 angles
39 angle types
17160 dihedrals
27 dihedral types
6080 impropers
8 improper types

0.7974599860669862 54.00971201391761 xlo xhi
0.7974599860669862 54.00971201391761 ylo yhi
0.7974599860669862 54.00971201391761 zlo zhi

Masses

1 12.011
2 1.008
3 1.008
4 12.011
5 1.008
6 1.008
7 15.999
8 15.999
9 12.011
10 1.008
11 1.008
12 1.008
13 12.011
14 1.008
15 1.008
16 1.008
17 32.065
18 15.999
19 15.999
20 32.065
21 15.999
22 15.999
23 18.998
24 18.998
25 14.007
26 6.941

Pair Coeffs # lj/cut/coul/long

1 0.066 3.5
2 0.03 2.5
3 0.03 2.5
4 0.066 3.5
5 0.03 2.5
6 0.03 2.5
7 0.14 2.9
8 0.14 2.9
9 0.066 3.5
10 0.03 2.5
11 0.03 2.5
12 0.03 2.5
13 0.066 3.5
14 0.03 2.5
15 0.03 2.5
16 0.03 2.5
17 0.25 3.55
18 0.21 2.96
19 0.21 2.96
20 0.25 3.55
21 0.21 2.96
22 0.21 2.96
23 0.053 2.95
24 0.053 2.95
25 0.17 3.25
26 0.0005 2.87

Bond Coeffs # harmonic

1 340 1.09
2 340 1.09
3 268 1.529
4 340 1.09
5 340 1.09
6 320 1.41
7 320 1.41
8 320 1.41
9 340 1.09
10 340 1.09
11 340 1.09
12 320 1.41
13 340 1.09
14 340 1.09
15 340 1.09
16 637.07 1.437
17 637.07 1.437
18 224.55 1.575
19 374.88 1.57
20 637.07 1.437
21 637.07 1.437
22 224.55 1.575
23 374.88 1.57

Angle Coeffs # harmonic

1 33 107.8
2 37.5 110.7
3 37.5 110.7
4 37.5 110.7
5 50 109.5
6 35 109.5
7 60 109.5
8 35 109.5
9 35 109.5
10 35 109.5
11 60 109.5
12 35 109.5
13 35 109.5
14 35 109.5
15 33 107.8
16 35 109.5
17 33 107.8
18 33 107.8
19 35 109.5
20 37.5 110.7
21 33 107.8
22 35 109.5
23 33 107.8
24 33 107.8
25 33 107.8
26 50 109.5
27 115.799 118.5
28 115.799 118.5
29 94.288 113.6
30 94.288 113.6
31 94.288 113.6
32 94.288 113.6
33 80.186 125.6
34 107.792 103
35 107.792 103
36 128.705 104.1
37 128.705 104.1
38 128.705 104.1
39 128.705 104.1

Dihedral Coeffs # opls

1 0 0 0.3 0
2 0 0 0.76 0
3 0 0 0.76 0
4 0.65 -0.25 0.67 0
5 0 0 0.76 0
6 -0.55 0 0 0
7 0 0 0.3 0
8 0 0 0.76 0
9 0 0 0.468 0
10 0 0 0.468 0
11 0 0 0.76 0
12 0 0 0.3 0
13 0 0 0.76 0
14 0 0 0.76 0
15 0 0 0.76 0
16 0 0 0.76 0
17 0 0 0.3 0
18 0 0 0.468 0
19 0.65 -0.25 0.67 0
20 0 0 0.76 0
21 0 0 0.468 0
22 0 0 -0.0036 0
23 0 0 -0.0036 0
24 0 0 -0.0036 0
25 0 0 -0.0036 0
26 2.735 -3.63 -0.768 0
27 2.735 -3.63 -0.768 0

Improper Coeffs # cvff

1 0 -1 2
2 0 -1 2
3 0 -1 2
4 0 -1 2
5 0 -1 2
6 0 -1 2
7 0 -1 2
8 0 -1 2

Atoms # full

12488 793 24 -0.13 4.658978020671449 5.427677704640048 5.816138693170991 1 0 0
12484 793 20 1.02 4.941928471973575 5.871935775763718 4.411050531616717 1 0 0
12481 793 17 1.02 2.6676013682004984 7.137250936977007 3.467930953684929 1 0 0
12489 793 25 -0.66 3.52166551422393 5.912349177780522 3.830298989163373 1 0 0
12485 793 21 -0.53 5.699055051332226 4.761681057895989 3.842326502363668 1 0 0
12710 815 26 1 6.657828089234853 2.8320301717238285 3.62172656721758 0 0 0
12486 793 22 -0.53 5.595390113673896 7.129488384025994 4.50740432813497 1 0 0
12482 793 18 -0.53 3.2646794511116504 8.388512015565437 3.915227027791044 1 0 0
11495 719 7 -0.4371 6.7821669099644355 2.8075289507423307 5.54539888861968 0 0 0
11492 719 4 0.1826 5.685581725156385 2.176468943236912 6.15939321379877 0 0 0
12483 793 19 -0.53 1.2556533747834409 7.003030795239237 3.654133981856181 1 0 0
11489 719 1 0.1826 4.346703227692874 2.2420568214699954 5.357252805067703 0 0 0
11490 719 2 0.0216 3.8277372864235093 3.1848208243168448 5.6157007755321215 0 0 0
11496 719 8 -0.4371 4.664181372385282 2.14044573259195 3.9778013723134373 0 0 0
11497 719 9 0.0937 3.5216903529651975 1.931671591068672 3.2190743539604734 0 0 0
11493 719 5 0.0216 5.475490994179163 2.5279590818086817 7.140928006316499 0 0 0
11501 719 13 0.0937 7.9278082712684395 2.8469338354716065 6.382817585867571 0 0 0
12487 793 23 -0.13 2.8713979134140755 7.196841874936433 1.9025283087403795 1 0 0
12702 815 18 -0.53 8.673646354720603 2.7309451889015586 3.2806974156132327 0 0 0
11491 719 3 0.0216 3.713116438365053 1.3661218346960304 5.658402514687349 0 0 0
12490 793 26 1 5.202677178839481 9.083971362246205 3.7543762043357316 1 0 0
11498 719 10 0.0392 2.7828521112829696 2.662945394071066 3.401137300761741 0 0 0
5949 372 13 0.0937 4.609010845056165 9.88921849174337 6.4063373415734235 1 0 0
11503 719 15 0.0392 7.707426424281243 3.616431180724701 7.158027263932152 0 0 0
11502 719 14 0.0392 8.686266371145823 3.3183818970158114 5.764665560421656 0 0 0
5950 372 14 0.0392 3.565461889722787 9.932290874821337 6.114031846946816 1 0 0
12705 815 21 -0.53 6.410747280366626 2.9278824442297218 1.6603118993456267 0 0 0
7942 497 6 0.0216 9.238503039027705 7.741816811843869 4.800170465858562 1 0 0
13918 936 24 -0.13 3.2500035950575237 5.716604759486466 8.126145080637741 0 0 0
5943 372 7 -0.4371 5.492809847692964 10.129346755304656 5.308629960494039 1 0 0
13917 936 23 -0.13 2.319795432670251 1.7452409766883312 7.710410425891603 0 0 0
12701 815 17 1.02 9.232882646262444 1.8807549029986792 2.2512388142295356 0 0 0
7950 497 14 0.0392 9.059741316002508 5.5047352481519685 2.983406935959398 1 0 0
5951 372 15 0.0392 4.767713924102707 8.950325268999173 6.737160877383186 1 0 0
7941 497 5 0.0216 7.9459851108978805 6.630364313091358 4.7584305589472 1 0 0
7940 497 4 0.1826 8.856631450851447 6.82557771469475 5.274139420715317 1 0 0
7937 497 1 0.1826 8.71319912878751 7.077350023472485 6.749733257046581 1 0 0
11504 719 16 0.0392 8.153817192790175 1.8346623421483133 6.806272393927811 0 0 0
7949 497 13 0.0937 9.949717939239358 5.6193673374238635 3.56165176580726 1 0 0
7944 497 8 -0.4371 9.58851437562392 8.096591737730344 7.211267727712646 1 0 0
7943 497 7 -0.4371 9.830678581241134 5.775921103344126 4.935473532382571 1 0 0
2943 184 15 0.0392 1.8788196680167848 5.421528133591504 5.75620916638158 1 0 0
12748 819 24 -0.13 1.4949584198667245 7.609583363818337 6.768822082527155 0 0 0
7938 497 2 0.0216 8.956037249322897 6.13660663740441 7.302045986094494 1 0 0
7939 497 3 0.0216 7.671774715865845 7.316959021504645 6.902578415532505 1 0 0
11494 719 6 0.0216 6.004093958717841 1.1119100144456124 6.157220219243161 0 0 0
3776 236 16 0.0392 17.571428141017233 27.306958549572634 1.8012831694651783 0 0 0
9441 591 1 0.1826 22.306312765618156 21.975934735985426 6.110209630799473 0 0 0
11303 707 7 -0.4371 21.729315423429533 20.29642919225625 1.5778550019798305 0 0 1
5946 372 10 0.0392 9.357832736063118 9.054357286927884 3.118772151250498 1 0 0
11499 719 11 0.0392 3.850041962696007 1.8866594549407496 2.1312505133879416 0 0 0
8163 511 3 0.0216 17.955539520800457 10.598838604266879 0.8993055925523327 0 0 1
9609 601 9 0.0937 5.710362986759981 20.17905322859771 2.0912441446125354 0 0 1
4161 261 1 0.1826 1.0238478078771969 15.854853975914803 7.146700261747866 1 -1 1
1881 118 9 0.0937 18.009649268462713 2.9928166389071866 0.8353723073770674 -1 0 1
7951 497 15 0.0392 10.42276608919921 6.44132102024375 3.152810101456243 1 0 0
7952 497 16 0.0392 10.49580224196055 4.756734162662245 3.3612799139631675 1 0 0
12703 815 19 -0.53 10.514378630823504 2.315200844379592 1.7098611758517108 0 0 0
5850 366 10 0.0392 11.48424702477701 4.41580268880823 6.525074418805368 0 1 1
5852 366 12 0.0392 10.900581365771421 5.595699493632883 7.648284849199136 0 1 1
5848 366 8 -0.4371 12.912381356070139 5.573033561987902 7.425556840576236 0 1 1
13965 941 21 -0.53 15.050545691715163 4.355998265699634 5.8019635627346435 0 0 1
14120 956 26 1 14.352063975121913 6.281726565683872 5.739664415853267 0 1 1
4359 273 7 -0.4371 16.176667750828493 7.00497607346039 4.961791837466935 0 1 1
13964 941 20 1.02 15.228510437494723 3.194282974486563 4.980903506411487 0 0 1
13969 941 25 -0.66 14.56184506636209 3.303778090271804 3.5533562710791706 0 0 1
13968 941 24 -0.13 16.69096137689508 3.219198708384445 4.655368255699375 0 0 1
13962 941 18 -0.53 13.543951812510805 5.511995960677941 3.952832158885212 0 0 1
13966 941 22 -0.53 15.09308535747818 1.9090580766441192 5.602888452295651 0 0 1
13961 941 17 1.02 13.820249216669481 4.5313443824323505 2.9868788150632137 0 0 1
4365 273 13 0.0937 17.481156158423165 6.772927203590422 5.416638854168403 0 1 1
5849 366 9 0.0937 11.705095847164186 4.896237102701641 7.434257658692099 0 1 1
4360 273 8 -0.4371 13.438306726437501 7.939724001081411 5.319739765961476 0 1 1
4356 273 4 0.1826 15.83659507145203 8.379304474062437 5.210141451337678 0 1 1
4361 273 9 0.0937 12.206541531611286 8.575957323716052 5.1334201475766434 0 1 1
4353 273 1 0.1826 14.425055575435447 8.648631438937358 4.609934961147907 0 1 1
13963 941 19 -0.53 12.765388896494835 4.213235635252239 2.077815467464611 0 0 1
4358 273 6 0.0216 15.789302163046138 8.649284796854818 6.2859722948926375 0 1 1
4357 273 5 0.0216 16.567962212744437 8.95112893584842 4.739922369662378 0 1 1
4363 273 11 0.0392 11.811126082460452 8.382940635752675 4.144828241178234 0 1 1
4368 273 16 0.0392 18.22101098148511 7.312987266257653 4.869437686129041 0 1 1
4364 273 12 0.0392 11.761053658513807 7.897817500311733 5.796242950600987 0 1 1
4367 273 15 0.0392 17.690626912692586 5.720328000949961 5.245464868917987 0 1 1
13967 941 23 -0.13 14.884951842028585 5.118515619849561 2.0697967385783067 0 0 1
4362 273 10 0.0392 12.118911084691629 9.614877700539413 5.506573172780735 0 1 1
4366 273 14 0.0392 17.571313494205082 6.990215302118287 6.489598410462713 0 1 1
4354 273 2 0.0216 14.448018116741796 8.332685990564782 3.56118861554566 0 1 1
12607 805 23 -0.13 7.145492726397725 27.399045580107767 5.533412046442379 0 0 0
13038 848 24 -0.13 27.037496372386894 4.001422227913834 6.4153909067222985 0 1 0
2786 175 2 0.0216 16.016477145705423 0.9564505124532194 2.965801268661601 0 1 1
4355 273 3 0.0216 14.347501134477337 9.765715744645028 4.697633359249893 0 1 1
5187 325 3 0.0216 1.0404759178374523 20.34273775446805 6.3110438977509755 -1 -1 0
1883 118 11 0.0392 18.041518403513734 2.2606781624057426 1.6725499062388336 -1 0 1
5188 325 4 0.1826 1.7216119555376614 21.80958035013172 7.806340146458433 -1 -1 0
9612 601 12 0.0392 6.499650421233822 20.86937905979065 2.0316200640223543 0 0 1
5847 366 7 -0.4371 15.237272482841387 6.7439556015788495 7.710741332687772 0 1 1
5013 314 5 0.0216 26.33314550473055 27.308676360613365 2.659849571758344 1 2 0
8171 511 11 0.0392 19.96071606742512 8.478319070328165 2.0041131866364763 0 0 1
5311 332 15 0.0392 12.240554846771696 1.938754154737618 4.926432127292575 1 0 -1
1874 118 2 0.0216 20.68710826081882 2.9541880335936335 1.5757008032752828 -1 0 1
7567 473 15 0.0392 1.1642764220114439 12.685654020314898 4.228289435258327 1 0 0
9518 595 14 0.0392 18.91512850019301 2.9871875683728684 5.770057149945979 0 0 0
1880 118 8 -0.4371 18.954128427286207 4.066920193484032 0.9708665270391511 -1 0 1
8168 511 8 -0.4371 18.183929668752256 9.470588629805674 2.565612523536851 0 0 1
12835 828 21 -0.53 26.933418159054728 7.1931864828436956 0.9934923986199004 0 1 1
3771 236 11 0.0392 14.37907806778852 23.97643778353792 5.85709721597389 0 0 0
5012 314 4 0.1826 25.681010970398784 26.950068097099603 1.8409800769850115 1 2 0
2539 159 11 0.0392 25.261025524296624 3.2697772604770567 2.1510837801703535 0 1 1
13850 929 26 1 22.378540087199728 1.243338679570449 6.693357242194558 0 0 0
9520 595 16 0.0392 19.829830737721835 4.15301766393986 6.666497526308594 0 0 0
9519 595 15 0.0392 19.518210574287203 2.536613062933923 7.426691502514265 0 0 0
12833 828 19 -0.53 26.574416981584303 7.34841922184449 5.474364340152905 0 1 1
9507 595 3 0.0216 22.155048041567284 1.795118312389911 3.638420916123858 0 0 0
9517 595 13 0.0937 19.790135808855982 3.044390809202332 6.491013781275616 0 0 0
9509 595 5 0.0216 21.711792870976392 4.277789560806175 5.195345304962279 0 0 0
9508 595 4 0.1826 21.393622187632225 3.3350794359782316 4.865798438256208 0 0 0
9511 595 7 -0.4371 20.978963801003264 2.4589614854433552 5.925130355246061 0 0 0
9505 595 1 0.1826 22.6075452385445 2.6253980072930028 4.145801451605037 0 0 0
12831 828 17 1.02 25.41878212660641 7.011766648188134 4.641735885768714 0 1 1
9506 595 2 0.0216 23.15163068610937 3.2360438498534214 3.453539439825782 0 0 0
12837 828 23 -0.13 25.208343009912557 5.492958982854254 5.034285751019956 0 1 1
12839 828 25 -0.66 25.714045866437417 6.794584073259001 3.092562105754858 0 1 1
12832 828 18 -0.53 24.1166805103423 7.58090877069743 4.920662865077669 0 1 1
1879 118 7 -0.4371 21.11718246991724 5.557221205098102 2.136937266416781 -1 0 1
9510 595 6 0.0216 20.657893848490975 3.5242701676044867 4.120851800401532 0 0 0
1888 118 16 0.0392 22.014383917141576 6.810324750181385 3.3812544900269534 -1 0 1
1885 118 13 0.0937 22.0994178939892 6.53384004006589 2.3334809685008886 -1 0 1
10541 659 13 0.0937 3.491219318226116 26.995150386725115 3.166529919274821 2 0 1
1474 93 2 0.0216 25.178122853860383 2.400857678165446 7.091747186624027 0 0 0
12834 828 20 1.02 27.065893559435946 6.714998816507524 2.342759561206691 0 1 1
11312 707 16 0.0392 22.77238921108068 18.517167556125912 1.0864975241727592 0 0 1
1887 118 15 0.0392 21.90269780814374 7.477808688550612 1.7443600354553195 -1 0 1
8305 520 1 0.1826 16.981666086989932 0.9941806976680612 8.190251415569286 0 0 1
8169 511 9 0.0937 18.892172893410024 8.408199618184184 1.884853050293591 0 0 1
5127 321 7 -0.4371 26.504666559732307 9.73189647103434 1.5427457560014968 -1 0 1
8172 511 12 0.0392 18.49765701982269 7.435575962738962 2.2159940774307394 0 0 1
7328 458 16 0.0392 20.152730584429992 7.701288678767965 4.72017769785177 0 0 0
7325 458 13 0.0937 20.897211183872614 8.211596284066912 5.297728386163845 0 0 0
7326 458 14 0.0392 21.52392277935763 8.880154750177192 4.760464887100908 0 0 0
7327 458 15 0.0392 21.593470892009275 7.468854962767235 5.699934646400034 0 0 0
11298 707 2 0.0216 21.02409021144062 22.620702749706815 2.368023758038388 0 0 1
5136 321 16 0.0392 24.77682790234175 9.652133347525686 2.6112996872185343 -1 0 1
9512 595 8 -0.4371 23.47912920630191 2.118828949270925 5.095033656921859 0 0 0
3996 250 12 0.0392 24.184790417281054 26.360427501898137 7.997437733723259 -1 0 0
956 60 12 0.0392 8.673816787690631 15.257121139181955 1.596435511119918 0 0 1
3999 250 15 0.0392 21.495971719232724 25.721733985460453 4.216282465690394 -1 0 0
10530 659 2 0.0216 1.0993165745221534 24.092037979269897 5.462093765380096 2 0 1
9259 579 11 0.0392 7.99005010296344 24.933525870475087 1.5358008113780808 0 0 1
5310 332 14 0.0392 10.89041697242393 2.106671507749462 6.049120096911183 1 0 -1
9514 595 10 0.0392 25.1777232255892 1.7472506010675668 3.901521864674833 0 0 0
7319 458 7 -0.4371 20.23401315940988 8.633092871924841 6.405436912218898 0 0 0
1886 118 14 0.0392 23.113912056255487 6.155635435715728 2.1851293372266527 -1 0 1
3762 236 2 0.0216 15.02924944268565 27.289801601166108 5.814279957799301 0 0 0
10267 642 11 0.0392 15.804280900477242 21.40968687968615 2.448586730919825 0 1 0
2790 175 6 0.0216 13.702401139746355 0.9966364523581083 2.017463096593643 0 1 1
3991 250 7 -0.4371 20.90590068587403 27.403014145687468 5.19622523265587 -1 0 0
10529 659 1 0.1826 0.9293761863661296 24.78926971910408 4.6731901650379 2 0 1
948 60 4 0.1826 4.3192509612364125 15.356339737315569 1.0248557833500176 0 0 1
12720 816 26 1 6.65751347617583 17.49362201647969 1.2849413747802385 0 1 1
6806 426 6 0.0216 23.061761351906387 7.857781375973521 7.489326709656213 0 -1 0
5952 372 16 0.0392 4.816130119522682 10.475857745836189 7.304368958779969 1 0 0
5938 372 2 0.0216 8.761910654331484 10.401503637758475 4.910356975601715 1 0 0
5941 372 5 0.0216 7.104318105751801 9.646483624337172 6.494042738270172 1 0 0
5940 372 4 0.1826 6.819659725943632 10.452729531903861 5.7500308930850075 1 0 0
13393 884 19 -0.53 5.20493103138657 8.826085618178244 1.609935367778416 1 0 0
5947 372 11 0.0392 8.042222133019003 8.305820045399951 2.04981422364372 1 0 0
2821 177 5 0.0216 3.597726826192099 22.728759707931882 0.9095101547695126 1 0 0
3998 250 14 0.0392 22.89057842469481 26.72192231515735 4.895144345424933 -1 0 0
6679 418 7 -0.4371 9.380187125934075 15.174776351244457 8.137219817504635 -1 0 1
5937 372 1 0.1826 7.756104228160164 10.581759608562043 4.533865930444123 1 0 0
5944 372 8 -0.4371 7.422076397159336 9.592302441350077 3.563470409003332 1 0 0
4165 261 5 0.0216 2.738302304364788 14.806364914152544 6.361756653192351 1 -1 1
11297 707 1 0.1826 20.275141462327852 22.111339241360728 1.7746554686591391 0 0 1
1930 121 10 0.0392 27.059094227528686 15.327079643291965 0.9000782300492411 0 -1 0
7633 478 1 0.1826 6.113352916653579 14.349883560038707 7.791551241361398 1 1 -1
5942 372 6 0.0216 6.862523501948576 11.355591344990012 6.40303949339112 1 0 0
5948 372 12 0.0392 8.511472006647733 10.099382638624283 1.845249515588753 1 0 0
5945 372 9 0.0937 8.42663107058969 9.242904602932088 2.601516232800966 1 0 0
4173 261 13 0.0937 2.055756039888044 12.413239046219381 7.177354911661997 1 -1 1
13398 884 24 -0.13 1.7921830946852888 10.663423931433636 2.2143215521051487 1 0 0
13396 884 22 -0.53 2.9500028807889374 12.73051578717709 1.8481786338708566 1 0 0
13395 884 21 -0.53 4.028546979851632 11.000415431407776 3.057555911615257 1 0 0
13394 884 20 1.02 3.206440736577913 11.342553413910531 1.9170723783180508 1 0 0
4164 261 4 0.1826 2.015462099153485 14.703115590206215 7.20321575532578 1 -1 1
5939 372 3 0.0216 7.799956094654081 11.557084397533195 4.164700636479235 1 0 0
7641 478 9 0.0937 5.269703528985849 14.14493304887346 5.61849779610264 1 1 -1
13582 903 18 -0.53 7.266614939710858 17.499526512707146 3.45390575477663 1 0 1
947 60 3 0.0216 5.129732473622575 14.585852751710073 2.8589479431981437 0 0 1
7642 478 10 0.0392 4.45070520665613 13.625813858081074 5.073609404895526 1 1 -1
7634 478 2 0.0216 7.002418273146209 14.732174681794048 7.279413771798966 1 1 -1
4175 261 15 0.0392 2.228835859550306 12.195305521576847 6.1052431616919405 1 -1 1
7640 478 8 -0.4371 5.287110005370348 13.591927597458623 6.932733983070914 1 1 -1
7643 478 11 0.0392 5.165954761282281 15.207650184319757 5.770433760466699 1 1 -1
7644 478 12 0.0392 6.106492325830778 14.075960551419858 4.930959805329187 1 1 -1
9451 591 11 0.0392 23.146729218689376 19.704371847901363 3.7734895488366376 0 0 0
13581 903 17 1.02 8.312980638586668 18.007275739351346 4.290987035128785 1 0 1
13587 903 23 -0.13 9.081438079802007 16.723424759388205 4.720961260736925 1 0 1
10866 680 2 0.0216 5.020943841030179 17.633646227970413 6.475792834632476 0 -1 0
3774 236 14 0.0392 18.81900679471667 26.757020553049824 3.008688950413046 0 0 0
10865 680 1 0.1826 4.639084311968488 18.611589008809787 6.782230442618773 0 -1 0
4166 261 6 0.0216 2.5766837193795364 14.8807877288391 8.183546823831989 1 -1 1
10868 680 4 0.1826 4.457449422279792 18.548815773752686 8.300868502116508 0 -1 0
4167 261 7 -0.4371 1.2642505266893689 13.524988699584663 7.132373004042439 1 -1 1
5309 332 13 0.0937 11.494547934135491 1.3672696775116964 5.525167381159546 1 0 -1
6687 418 15 0.0392 10.412168023659962 13.49843961528542 7.643622001367655 -1 0 1
3993 250 9 0.0937 23.5576920479015 25.508944283563963 8.15591274503187 -1 0 0
11414 714 6 0.0216 11.907934906344773 11.256641884563876 7.905010353245768 0 0 -1
950 60 6 0.0216 3.3254930638874862 14.984481474617164 1.1768042147420563 0 0 1
9020 564 12 0.0392 26.829131753629355 22.62599363724212 5.272543240210346 0 0 0
3761 236 1 0.1826 15.523733774458616 26.468059149339886 5.214585873553814 0 0 0
4123 258 11 0.0392 13.311222883955562 25.944490433210532 7.825817702319215 1 -1 0
954 60 10 0.0392 7.770759532511673 14.534001255351136 2.9082689234054246 0 0 1
4995 313 3 0.0216 14.757194604828289 23.41799922622551 0.9438068098336082 1 0 1
9513 595 9 0.0937 24.40955699398753 1.1937426360935697 4.47177488055804 0 0 0
931 59 3 0.0216 11.34982750967286 9.365239689807359 1.4994148605858817 1 0 0
9347 585 3 0.0216 25.67877143682447 19.576720667443027 1.0678282316402565 -2 -1 0
6677 418 5 0.0216 9.475521476272288 16.97835353816364 7.2028741227228 -1 0 1
2537 159 9 0.0937 24.76853594674018 3.558727374905822 1.2178103872763058 0 1 1
11415 714 7 -0.4371 13.537817088631245 12.503876437040544 7.556504974669137 0 0 -1
7315 458 3 0.0216 18.014134417969025 9.134919668627031 7.78209893673339 0 0 0
937 59 9 0.0937 13.822073613258246 10.78387934232665 0.9538891614035898 1 0 0
10270 642 14 0.0392 12.365172017869654 17.27866861965882 5.879610330529504 0 1 0
14058 950 24 -0.13 9.642278888207994 13.29338574010069 3.8754722847229446 0 0 0
10262 642 6 0.0216 12.8928375187621 18.06878092787467 3.819421421758897 0 1 0
8174 511 14 0.0392 15.906991194835603 12.823568149894195 4.5600116278512495 0 0 1
8167 511 7 -0.4371 16.347645642349516 11.91001239318318 2.808604719508667 0 0 1
14059 950 25 -0.66 11.724790947674318 13.940118705514465 3.024881041663253 0 0 0
14056 950 22 -0.53 11.33188941524189 11.649579294946225 4.019774993400821 0 0 0
14054 950 20 1.02 10.862736790328473 12.679526478619392 3.092066210827847 0 0 0
8173 511 13 0.0937 15.699994768232797 13.00622704191581 3.5192536405264554 0 0 1
8175 511 15 0.0392 16.028203520847526 14.033805344770535 3.0752491617854214 0 0 1
8176 511 16 0.0392 14.622349940934718 12.894920123400192 3.3426883443806794 0 0 1
14055 950 21 -0.53 10.38392199133046 12.25275345170144 1.796026283631799 0 0 0
8164 511 4 0.1826 17.827127126258375 11.877703392516757 2.7671150225505308 0 0 1
8166 511 6 0.0216 18.156149050150297 12.868444284247365 2.4462684162185715 0 0 1
7812 489 4 0.1826 17.348164817110383 16.599579598287423 5.846953186292413 0 1 0
11422 714 14 0.0392 13.365869718636898 13.708464500017204 5.827551640667968 0 0 -1
11423 714 15 0.0392 13.430571835614336 11.927141859231194 5.483933047813273 0 0 -1
7814 489 6 0.0216 16.894523872307833 16.512658354781323 4.876519346497764 0 1 0
10269 642 13 0.0937 13.178737558497044 17.813874336272683 6.426922780640312 0 1 0
14051 950 17 1.02 12.15635063840008 14.823660223955555 1.771009460363182 0 0 0
10271 642 15 0.0392 13.602936164072787 17.129618206094662 7.132139284155141 0 1 0
10272 642 16 0.0392 12.76240960902473 18.680422116208838 6.923147782431783 0 1 0
940 59 12 0.0392 14.222035975892725 10.125323731879368 1.6835905253051133 1 0 0
8165 511 5 0.0216 18.162987028381536 11.796344086797909 3.7829199477213713 0 0 1
8161 511 1 0.1826 18.408250203999348 10.679974589769168 1.8950848875661335 0 0 1
14053 950 19 -0.53 13.374604743077205 15.52661822371564 2.11645978996282 0 0 0
7822 489 14 0.0392 17.485325900354358 14.280390327216148 5.103227575651663 0 1 0
11421 714 13 0.0937 13.101425643554201 12.687687241013668 6.201209176547507 0 0 -1
7813 489 5 0.0216 16.69450312735087 16.19230202252631 6.605020366072639 0 1 0
6688 418 16 0.0392 10.390978223178406 14.620718965088251 6.373522492611642 -1 0 1
6685 418 13 0.0937 10.48786151654536 14.533863693451675 7.453062490981468 -1 0 1
7821 489 13 0.0937 18.392016689039217 14.464546443282499 5.731101532053986 0 1 0
7824 489 16 0.0392 18.169965983767696 14.059014768687 6.732512651232886 0 1 0
6686 418 14 0.0392 11.511156567298267 14.704326646657744 7.7661402927587355 -1 0 1
7823 489 15 0.0392 19.335112352797925 13.863292090348667 5.445286751470707 0 1 0
7809 489 1 0.1826 17.668522438354398 18.046028405018944 5.922966805258168 0 1 0
7815 489 7 -0.4371 18.574451827162335 15.875745063044853 5.802723580746385 0 1 0
9007 563 15 0.0392 16.388161999925565 20.35466566862809 7.179935528995753 0 0 0
11424 714 16 0.0392 12.065458313941015 12.648425619740111 6.192057228345204 0 0 -1
4000 250 16 0.0392 21.997631092936334 27.12677066827815 3.4458402932555336 -1 0 0
10260 642 4 0.1826 13.454536957783102 18.80451196995403 4.27356143945207 0 1 0
10257 642 1 0.1826 14.583100905456012 19.206073805540246 3.316092053090727 0 1 0
10259 642 3 0.0216 15.178928654841382 18.29750544987357 3.0133162482134517 0 1 0
10263 642 7 -0.4371 14.092133949029725 18.280201003915842 5.4303529037457245 0 1 0
939 59 11 0.0392 14.182979753679165 11.71402236387506 1.2370231859021277 1 0 0
11413 714 5 0.0216 13.418401577787895 10.423246383363567 7.8228512004807556 0 0 -1
14057 950 23 -0.13 10.995774575171579 15.846765975937567 1.7857965872119435 0 0 0
1484 93 12 0.0392 22.00087982199172 4.173286509698486 7.81031402481937 0 0 0
3764 236 4 0.1826 16.18728947644733 27.043621952366266 3.9980609824028486 0 0 0
8162 511 2 0.0216 19.510998244942705 10.8229228570035 1.7988993240689195 0 0 1
7313 458 1 0.1826 18.501586959928005 10.028581975217659 7.4254454987108245 0 0 0
5134 321 14 0.0392 26.086369613564848 10.530286795305551 3.4913416739202083 -1 0 1
8700 544 12 0.0392 21.0535737535311 17.102674309635947 7.7468776896227105 1 1 1
5133 321 13 0.0937 25.644470655142197 10.33447802971994 2.5043916867918634 -1 0 1
7811 489 3 0.0216 17.907365790703206 18.435023045298493 4.963623561192395 0 1 0
4347 272 11 0.0392 21.680685383057043 11.047630648596057 3.2151964233424155 0 -1 1
4348 272 12 0.0392 22.988717490615414 11.680874560792976 4.3008542487758 0 -1 1
4345 272 9 0.0937 21.95942740435835 11.806749967812648 3.8646681436414294 0 -1 1
4346 272 10 0.0392 21.259353630381536 11.603458117270751 4.728139368990456 0 -1 1
10929 684 1 0.1826 24.7696396299971 12.473007456852777 7.719996821797686 1 0 -1
10933 684 5 0.0216 22.782651262521494 11.827393924010178 6.963053075607344 1 0 -1
1934 121 14 0.0392 24.58036118327041 17.74862468461131 6.612668918578818 0 -1 0
4342 272 6 0.0216 21.336382199131002 14.78417342396484 1.461685579191653 0 -1 1
4340 272 4 0.1826 22.408811741521244 14.630712770316862 1.6358731619815587 0 -1 1
4338 272 2 0.0216 23.711948382340278 13.158163748284036 2.5144191908272147 0 -1 1
4337 272 1 0.1826 22.674723504595043 13.288063458206997 2.277680741395756 0 -1 1
4350 272 14 0.0392 21.388185408566496 16.545915055185045 3.5277942769029513 0 -1 1
4351 272 15 0.0392 22.38256541971548 15.35266235394787 4.479325698923983 0 -1 1
4343 272 7 -0.4371 23.043478948659008 15.691812231444183 2.439045591110715 0 -1 1
4344 272 8 -0.4371 21.813760748778616 13.09855033319492 3.381251287208852 0 -1 1
10930 684 2 0.0216 24.996161311294717 11.451023094353156 7.8614501691146685 1 0 -1
4349 272 13 0.0937 22.431489109067375 16.082435610666458 3.6570550308047385 0 -1 1
1927 121 7 -0.4371 26.372104598918824 17.184572634889413 5.4972243521333475 0 -1 0
10936 684 8 -0.4371 25.339523818032248 12.866407727359418 6.496094840594 1 0 -1
4352 272 16 0.0392 22.934579257787437 16.89026034735677 4.135052963648737 0 -1 1
1933 121 13 0.0937 25.692779597974972 17.878472557039938 6.54245849531905 0 -1 0
1936 121 16 0.0392 25.912193459882683 19.018465829629413 6.506007608736187 0 -1 0
1935 121 15 0.0392 26.137429227193763 17.392767994532957 7.335449171365013 0 -1 0
10932 684 4 0.1826 23.274308367007762 12.329411477179619 7.784098808212604 1 0 -1
5135 321 15 0.0392 25.32541178950223 11.218953094487198 2.0340358680333894 -1 0 1
4162 261 2 0.0216 1.348935673635025 16.672867141435166 6.403955281765156 1 -1 1
8697 544 9 0.0937 22.071024173016838 17.169896219027375 7.405315025957542 1 1 1
8699 544 11 0.0392 22.81974352410278 16.38093679324584 7.6535417454335875 1 1 1
7316 458 4 0.1826 19.40332239019006 9.711968676023718 6.2337882565471885 0 0 0
7317 458 5 0.0216 18.723274831984213 9.54363216158622 5.371744816850228 0 0 0
8698 544 10 0.0392 22.101519781993616 17.25756315983286 6.287906618913264 1 1 1
7324 458 12 0.0392 17.474838657715445 12.681089232929839 8.114773399171442 0 0 0
10937 684 9 0.0937 24.59611471855081 13.814134189436066 5.751022830239859 1 0 -1
10940 684 12 0.0392 23.580755485937978 13.501367030116329 5.393536876122983 1 0 -1
10939 684 11 0.0392 25.26731163454011 13.97054532178747 4.830262134136897 1 0 -1
7318 458 6 0.0216 20.059122878051323 10.494021969185333 6.087535037766284 0 0 0
5844 366 4 0.1826 14.122748819320401 7.35837596528536 8.398746631736238 0 1 1
10938 684 10 0.0392 24.401973019422712 14.773966212440733 6.303698992830559 1 0 -1
10935 684 7 -0.4371 22.61243490928452 13.5568333861047 8.116096583152785 1 0 -1
4163 261 3 0.0216 1.1154703356434605 16.411544321921156 8.092016778221634 1 -1 1
1921 121 1 0.1826 26.608402086386622 16.585905476140034 3.1435298930317868 0 -1 0
2538 159 10 0.0392 24.462858109512727 4.618809859058662 1.169822019903434 0 1 1
945 60 1 0.1826 5.435221742948925 14.663283434535328 1.7834641997618406 0 0 1
7816 489 8 -0.4371 18.436731289674412 18.436070433379108 7.052631278717637 0 1 0
1926 121 6 0.0216 25.116233000380323 17.86988657268575 4.025132269122191 0 -1 0
1924 121 4 0.1826 26.17514142101855 17.61961165045494 4.1892343775560015 0 -1 0
1925 121 5 0.0216 26.758578416277757 18.59584222884986 4.154649413727744 0 -1 0
9005 563 13 0.0937 15.51722025700249 20.88906645568621 7.582774152330037 0 0 0
3988 250 4 0.1826 20.472919973518255 26.78511755053309 6.44060926829013 -1 0 0
10941 684 13 0.0937 21.246484821240642 13.46134905157039 8.327240445198981 1 0 -1
1922 121 2 0.0216 25.999661633559406 15.707975581856232 3.412102590321827 0 -1 0
5190 325 6 0.0216 1.966093919512816 22.62241099015254 7.182087475791432 -1 -1 0
11500 719 12 0.0392 3.0699878305635058 0.9904299782915246 3.5431100055524705 0 0 0
13586 903 22 -0.53 8.789823304706129 18.286513310407415 1.286742985080811 1 0 1
11307 707 11 0.0392 19.74216279787937 24.324338634356064 0.9466867985317037 0 0 1
1929 121 9 0.0937 26.101044349515952 15.837014401461339 0.9738275502610956 0 -1 0
2820 177 4 0.1826 2.8885648294766946 23.380084328268747 1.517432640484529 1 0 0
8696 544 8 -0.4371 22.55305585188766 18.330622628627935 7.979092880442353 1 1 1
10542 659 14 0.0392 4.077183335368864 26.106291706654517 2.7861412039341724 2 0 1
1480 93 8 -0.4371 23.431604245978306 2.6690960052681576 7.911455964756628 0 0 0
10873 680 9 0.0937 3.585196929609096 18.354316638157528 4.786499634179226 0 -1 0
10872 680 8 -0.4371 3.394512595297317 18.822767491141658 6.162054940790356 0 -1 0
10874 680 10 0.0392 2.5486383724877726 18.30297735379976 4.3001292212180635 0 -1 0
10876 680 12 0.0392 4.075112136099132 17.370284519587383 4.605130203998587 0 -1 0
5854 366 14 0.0392 16.673273967651173 5.227707780768313 8.038367329223096 0 1 1
10875 680 11 0.0392 4.1906000696802295 19.02154192632998 4.2278398601367115 0 -1 0
13584 903 20 1.02 9.700290748636931 19.051650048392432 2.1259811295437876 1 0 1
2942 184 14 0.0392 1.863679128352637 3.6888512194393637 5.79229400244438 1 0 0