LAMMPS data file Created by LigParGen - (Written by Leela S. Dodda)

      10 atoms
       8 bonds
      13 angles
       6 dihedrals
       0 impropers
 
      10 atom types
       8 bond types
      13 angle types
       6 dihedral types
       0 improper types
 
   -5.000000    45.000000 xlo xhi
   -5.000000    45.000000 ylo yhi
   -5.000000    45.000000 zlo zhi

Masses

       1      32.065
       2      15.999
       3      15.999
       4      32.065
       5      15.999
       6      15.999
       7      18.998
       8      18.998
       9      14.007
      10       6.941


Pair Coeffs

       1      0.250  3.55
       2      0.210  2.96
       3      0.210  2.96
       4      0.250  3.55
       5      0.210  2.96
       6      0.210  2.96
       7      0.053  2.95
       8      0.053  2.95
       9      0.170  3.25
      10      0.0005  2.87

Bond Coeffs 

       1   637.0700     1.437 
       2   637.0700     1.437 
       3   224.5500     1.575 
       4   374.8800     1.570 
       5   637.0700     1.437 
       6   637.0700     1.437 
       7   224.5500     1.575 
       8   374.8800     1.570 

Angle Coeffs 

       1    115.799    118.500
       2    115.799    118.500
       3     94.288    113.600
       4     94.288    113.600
       5     94.288    113.600
       6     94.288    113.600
       7     80.186    125.600
       8    107.792    103.000
       9    107.792    103.000
      10    128.705    104.100
      11    128.705    104.100
      12    128.705    104.100
      13    128.705    104.100

Dihedral Coeffs  

       1      0.000      0.000     -0.0036      0.000
       2      0.000      0.000     -0.0036      0.000
       3      0.000      0.000     -0.0036      0.000
       4      0.000      0.000     -0.0036      0.000
       5      2.735     -3.630     -0.768      0.000
       6      2.735     -3.630     -0.768      0.000
  
Atoms 

     1      1      1 1.02    -0.215000    0.238000    0.000000
	 2      1      2 -0.53   -1.253000    0.015000    0.986000
     3      1      3 -0.53	 -0.197000   -0.538000   -1.228000
     4      1      4 1.02	 2.583000    0.556000    0.000000
     5      1      5 -0.53	 2.565000    1.331000   -1.228000
     6      1      6 -0.53	 3.621000    0.779000    0.985000
     7      1      7 -0.13   -0.508000    1.798000   -0.5300000
     8      1      8 -0.13   2.874000   -1.004000   -0.530000
     9      1      9 -0.66   1.184000    0.398000    0.772000
    10      1     10 1.00    5.019000    0.253000   -0.366000

Bonds 

     1      1      2      1
     2      2      3      1
     3      3      7      1
     4      4      9      1
     5      5      5      4
     6      6      6      4
	 7		7      8      4
	 8		8      9      4

Angles 

     1      1      2      1      3
     2      2      5      4      6
     3      3      2      1      9
     4      4      3      1      9
     5      5      5	  4		 9
     6      6      6	  4		 9
     7      7      1	  9		 4
     8      8      7 	  1 	 9
     9      9      8      4      9
    10     10      2      1      7
    11     11      3      1      7
    12     12      5      4      8
    13     13      6      4      8
	
Dihedrals

     1      1      2      1      9      4 
     2      2      3      1      9      4 
     3      3      5      4      9      1 
     4      4      6      4      9      1 
     5      5      7      1      9      4 
     6      6      8      4      9      1

