LAMMPS data file Created by LigParGen - (Written by Leela S. Dodda)

       5 atoms
       3 bonds
       3 angles
       0 dihedrals
       3 impropers
 
       5 atom types
       3 bond types
       3 angle types
       0 dihedral types
       3 improper types
 
   -5.000000    45.000000 xlo xhi
   -5.000000    45.000000 ylo yhi
   -5.000000    45.000000 zlo zhi

Masses

       1      14.007
       2      15.999
       3      15.999
       4      15.999
       5       6.941

Pair Coeffs

       1      0.170  3.15
       2      0.210  2.86
       3      0.210  2.86
       4      0.210  2.86
       5      0.0005  2.87

Bond Coeffs 

       1   634.2000     1.226 
       2   634.2000     1.226 
       3   634.2000     1.226 

Angle Coeffs 

       1    120.817    120.000
       2    120.817    120.000
       3    120.817    120.000
	   
Improper Coeffs

       1      1.000      -1       2 
       2      1.000      -1       2 
       3      1.000      -1       2 
	   
Atoms 

     1      1      1 0.794   -4.085000   -0.018000    0.056000
	 2      1      2 -0.598   -3.619000   -1.186000   -0.062000
     3      1      3 -0.598	  -5.284000    0.151000    0.380000
     4      1      4 -0.598	  -3.337000    0.972000   -0.154000
     5      1      5 1.000   -3.066000   -3.003000   -0.102000

Bonds 

     1      1      2      1
     2      2      3      1
     3      3      4      1

Angles 

     1      1      2      1      3
     2      2      2      1      4
     3      3      3      1      4

Impropers

     1      1      2      3      1      4 
     2      2      2      4      1      3 
     3      3      3      4      1      2 
	 
	 