LAMMPS data file Created by LigParGen - (Written by Leela S. Dodda)

       8 atoms
       6 bonds
      15 angles
       0 dihedrals
       0 impropers
 
       8 atom types
       6 bond types
      15 angle types
       0 dihedral types
       0 improper types
 
   -5.000000    45.000000 xlo xhi
   -5.000000    45.000000 ylo yhi
   -5.000000    45.000000 zlo zhi

Masses

       1      30.977
       2      18.998
       3      18.998
       4      18.998
       5      18.998
       6      18.998
       7      18.998
       8       6.941

Pair Coeffs

       1      0.200  3.740
       2      0.061  3.1181
       3      0.061  3.1181
       4      0.061  3.1181
       5      0.061  3.1181
       6      0.061  3.1181
       7      0.061  3.1181
       8      0.0005  2.87

Bond Coeffs 

       1   370.4600     1.606 
       2   370.4600     1.606 
       3   370.4600     1.606 
       4   370.4600     1.606 
       5   370.4600     1.606 
       6   370.4600     1.606 

Angle Coeffs 

       1    139.220     90.000
       2    139.220     90.000
       3    139.220     90.000
       4    139.220     90.000
       5    139.220     90.000
       6    139.220     90.000
       7    139.220     90.000
       8    139.220     90.000
       9    139.220     90.000
      10    139.220     90.000
      11    139.220     90.000
      12    139.220     90.000
      13     34.775    180.000
      14     34.775    180.000
      15     34.775    180.000
	  
Atoms 

     1      1      1 1.34000000    0.137    1.07200    0.00000
	 2      1      2 -0.39000000    0.137    1.07200    1.64500
     3      1      3 -0.39000000	0.137    2.71700    0.00000
     4      1      4 -0.39000000	1.782    1.07200    0.00000
     5      1      5 -0.39000000	0.137    1.07200   -1.64500
     6      1      6 -0.39000000	0.137   -0.57300    0.00000
     7      1      7 -0.39000000    -1.509    1.07200    0.00000
     8      1      8 1.00000000    -3.508    1.11500    0.00000

Bonds 

     1      1      2      1
     2      2      3      1
     3      3      4      1
     4      4      5      1
     5      5      6      1
     6      6      7      1

Angles 

     1      1      2      1      3
     2      2      2      1      4
     3      3      2      1      6
     4      4      2      1      7
     5      5      3	  1		 4
     6      6      3	  1		 5
     7      7      3	  1		 7
     8      8      4 	  1 	 5
     9      9      4      1      6
    10     10      5      1      6
    11     11      5      1      7
    12     12      6      1      7
    13     13      2      1      5
    14     14      3      1      6
    15     15      4      1      7
	
	