LAMMPS data file Created by LigParGen - (Written by Leela S. Dodda)

      16 atoms
      14 bonds
      25 angles
      24 dihedrals
       0 impropers
 
      16 atom types
      14 bond types
      25 angle types
      24 dihedral types
       0 improper types
 
   -5.000000    45.000000 xlo xhi
   -5.000000    45.000000 ylo yhi
   -5.000000    45.000000 zlo zhi

Masses

       1      32.065
       2      15.999
       3      15.999
       4      32.065
       5      15.999
       6      15.999
       7      14.007
       8      12.011
       9      12.011
      10      18.998 
	  11      18.998
	  12      18.998
	  13      18.998
	  14      18.998
	  15      18.998
	  16       6.941


Pair Coeffs

       1      0.250  3.55
       2      0.210  2.96
       3      0.210  2.96
       4      0.250  3.55
       5      0.210  2.96
       6      0.210  2.96
       7      0.170  3.25
       8      0.066  3.50
       9      0.066  3.50
      10      0.053  2.95
	  11      0.053  2.95
      12      0.053  2.95
      13      0.053  2.95
      14      0.053  2.95
      15      0.053  2.95
      16      0.0005  2.87

Bond Coeffs 

       1   374.8800     1.570 
       2   374.8800     1.570 
       3   637.0700     1.437 
       4   637.0700     1.437 
       5   637.0700     1.437 
       6   637.0700     1.437 
       7   233.0300     1.818 
       8   233.0300     1.818 
       9   441.9200     1.323 
      10   441.9200     1.323 
      11   441.9200     1.323 
      12   441.9200     1.323 
      13   441.9200     1.323 
      14   441.9200     1.323 

Angle Coeffs 

       1     94.288    113.600
       2     94.288    113.600
       3     94.288    113.600
       4     94.288    113.600
       5     91.300    103.500
       6     91.300    103.500
       7     82.930    111.700
       8     82.930    111.700
       9     82.930    111.700
      10     82.930    111.700
      11     82.930    111.700
      12     82.930    111.700
      13     80.190    125.600
      14    103.970    102.600
      15    103.970    102.600
      16    103.970    102.600
      17    103.970    102.600
      18    115.800    118.500
      19    115.800    118.500
      20     93.330    107.100
      21     93.330    107.100
      22     93.330    107.100
      23     93.330    107.100
      24     93.330    107.100
      25     93.330    107.100

Dihedral Coeffs  

       1      0.000      0.000     0.316      0.000
       2      0.000      0.000     0.316      0.000
       3      0.000      0.000     0.316      0.000
       4      0.000      0.000     0.316      0.000
       5      0.000      0.000     0.316      0.000
       6      0.000      0.000     0.316      0.000
       7      0.000      0.000     -0.004      0.000
       8      0.000      0.000     -0.004      0.000
       9      0.000      0.000     -0.004      0.000
      10      0.000      0.000     -0.004      0.000
      11      7.833      -2.490     -0.764      0.000
      12      7.833      -2.490     -0.764      0.000
      13      0.000      0.000     0.347      0.000
      14      0.000      0.000     0.347      0.000
      15      0.000      0.000     0.347      0.000
      16      0.000      0.000     0.347      0.000
      17      0.000      0.000     0.347      0.000
      18      0.000      0.000     0.347      0.000
      19      0.000      0.000     0.347      0.000
      20      0.000      0.000     0.347      0.000
      21      0.000      0.000     0.347      0.000
      22      0.000      0.000     0.347      0.000
      23      0.000      0.000     0.347      0.000
      24      0.000      0.000     0.347      0.000

Atoms 

     1      1      1 1.02   -0.230000   -3.309000    1.156000
	 2      1      2 -0.53  -0.754000   -2.288000    2.064000
     3      1      3 -0.53	 0.131000   -4.618000    1.701000
     4      1      4 1.02	 2.028000   -3.331000   -0.615000
     5      1      5 -0.53	 1.896000   -4.772000   -0.831000
     6      1      6 -0.53	 2.414000   -2.481000   -1.740000
     7      1      7 -0.66   0.834000   -2.596000    0.178000
     8      1      8 0.35   -1.673000   -3.660000   -0.018000
     9      1      9 0.35    3.471000   -3.159000    0.599000
    10      1     10 -0.16  -2.690000   -4.195000    0.672000
	11		1     11 -0.16  -2.096000   -2.531000   -0.597000
	12		1     12 -0.16  -1.303000   -4.520000   -0.973000
	13		1     13 -0.16   4.572000   -3.712000    0.069000
	14		1     14 -0.16   3.195000   -3.776000    1.753000
	15		1     15 -0.16   3.722000   -1.869000    0.853000
	16		1     16 1.00    0.766000   -0.967000    0.282000

Bonds 

     1      1      7      1
     2      2      7      4
     3      3      1      2
     4      4      1      3
     5      5      4      5
     6      6      4      6
	 7		7      1      8
	 8		8      4      9
	 9		9      8     10
	10     10      8     11
	11     11      8     12
	12     12      9     13
	13     13      9     14
	14     14      9     15
	
Angles 

     1      1      7      1      2
     2      2      7      1      3
     3      3      7      4      5
     4      4      7      4      6
     5      5      7	  1		 8
     6      6      7	  4		 9
     7      7      1	  8		10
     8      8      1	  8		11
     9      9      1	  8		12
    10     10      4      9     13
    11     11      4      9     14
    12     12      4      9     15
    13     13      1      7      4
    14     14      8      1      2
    15     15      8      1      3
    16     16      9      4      5
    17     17      9      4      6
    18     18      2      1      3
    19     19      5      4      6
    20     20     10      8     11
    21     21     10      8     12
    22     22     11      8     12
    23     23     13      9     14
    24     24     13      9     15
    25     25     14      9     15
	
Dihedrals

     1      1      7      1      8     10 
     2      2      7      1      8     11 
     3      3      7      1      8     12 
     4      4      7      4      9     13 
     5      5      7      4      9     14 
     6      6      7      4      9     15
     7      7      1      7      4      5
     8      8      1      7      4      6
     9      9      4      7      1      2
    10     10      4      7      1      3	 
    11     11      1      7      4      9	 
    12     12      4      7      1      8	 
    13     13      2      1      8     10	 
    14     14      2      1      8     11	 
    15     15      2      1      8     12	 
    16     16      3      1      8     10	 
    17     17      3      1      8     11	 
    18     18      3      1      8     12	 
    19     19      5      4      9     13
    20     20      5      4      9     14
    21     21      5      4      9     15
    22     22      6      4      9     13
    23     23      6      4      9     14
    24     24      6      4      9     15

